 Entering Gaussian System, Link 0=/opt/gaussian/g09/g09
 Input=TS-after-scan-T.com
 Output=TS-after-scan-T.log
 Initial command:
 /opt/gaussian/g09/l1.exe /tmp/chrayteh.TS-after-scan-T/Gau-23068.inp -scrdir=/tmp/chrayteh.TS-after-scan-T/
 Entering Link 1 = /opt/gaussian/g09/l1.exe PID=     23069.
  
 Copyright (c) 1988,1990,1992,1993,1995,1998,2003,2009, Gaussian, Inc.
                  All Rights Reserved.
  
 This is part of the Gaussian(R) 09 program.  It is based on
 the Gaussian(R) 03 system (copyright 2003, Gaussian, Inc.),
 the Gaussian(R) 98 system (copyright 1998, Gaussian, Inc.),
 the Gaussian(R) 94 system (copyright 1995, Gaussian, Inc.),
 the Gaussian 92(TM) system (copyright 1992, Gaussian, Inc.),
 the Gaussian 90(TM) system (copyright 1990, Gaussian, Inc.),
 the Gaussian 88(TM) system (copyright 1988, Gaussian, Inc.),
 the Gaussian 86(TM) system (copyright 1986, Carnegie Mellon
 University), and the Gaussian 82(TM) system (copyright 1983,
 Carnegie Mellon University). Gaussian is a federally registered
 trademark of Gaussian, Inc.
  
 This software contains proprietary and confidential information,
 including trade secrets, belonging to Gaussian, Inc.
  
 This software is provided under written license and may be
 used, copied, transmitted, or stored only in accord with that
 written license.
  
 The following legend is applicable only to US Government
 contracts under FAR:
  
                    RESTRICTED RIGHTS LEGEND
  
 Use, reproduction and disclosure by the US Government is
 subject to restrictions as set forth in subparagraphs (a)
 and (c) of the Commercial Computer Software - Restricted
 Rights clause in FAR 52.227-19.
  
 Gaussian, Inc.
 340 Quinnipiac St., Bldg. 40, Wallingford CT 06492
  
  
 ---------------------------------------------------------------
 Warning -- This program may not be used in any manner that
 competes with the business of Gaussian, Inc. or will provide
 assistance to any competitor of Gaussian, Inc.  The licensee
 of this program is prohibited from giving any competitor of
 Gaussian, Inc. access to this program.  By using this program,
 the user acknowledges that Gaussian, Inc. is engaged in the
 business of creating and licensing software in the field of
 computational chemistry and represents and warrants to the
 licensee that it is not a competitor of Gaussian, Inc. and that
 it will not use this program in any manner prohibited above.
 ---------------------------------------------------------------
  

 Cite this work as:
 Gaussian 09, Revision A.02,
 M. J. Frisch, G. W. Trucks, H. B. Schlegel, G. E. Scuseria, 
 M. A. Robb, J. R. Cheeseman, G. Scalmani, V. Barone, B. Mennucci, 
 G. A. Petersson, H. Nakatsuji, M. Caricato, X. Li, H. P. Hratchian, 
 A. F. Izmaylov, J. Bloino, G. Zheng, J. L. Sonnenberg, M. Hada, 
 M. Ehara, K. Toyota, R. Fukuda, J. Hasegawa, M. Ishida, T. Nakajima, 
 Y. Honda, O. Kitao, H. Nakai, T. Vreven, J. A. Montgomery, Jr., 
 J. E. Peralta, F. Ogliaro, M. Bearpark, J. J. Heyd, E. Brothers, 
 K. N. Kudin, V. N. Staroverov, R. Kobayashi, J. Normand, 
 K. Raghavachari, A. Rendell, J. C. Burant, S. S. Iyengar, J. Tomasi, 
 M. Cossi, N. Rega, J. M. Millam, M. Klene, J. E. Knox, J. B. Cross, 
 V. Bakken, C. Adamo, J. Jaramillo, R. Gomperts, R. E. Stratmann, 
 O. Yazyev, A. J. Austin, R. Cammi, C. Pomelli, J. W. Ochterski, 
 R. L. Martin, K. Morokuma, V. G. Zakrzewski, G. A. Voth, 
 P. Salvador, J. J. Dannenberg, S. Dapprich, A. D. Daniels, 
 O. Farkas, J. B. Foresman, J. V. Ortiz, J. Cioslowski, 
 and D. J. Fox, Gaussian, Inc., Wallingford CT, 2009.
 
 ******************************************
 Gaussian 09:  EM64L-G09RevA.02 11-Jun-2009
                19-Sep-2022 
 ******************************************
 %chk=TS-after-scan.chk
 %mem=2GB
 %nprocshared=8
 Will use up to    8 processors via shared memory.
 ------------------------------------------------------
 #p M062X/6-311+G* opt=(ts,calcall) SCF=XQC nosymm freq
 ------------------------------------------------------
 1/5=1,10=4,14=-1,18=20,26=3,38=1/1,3;
 2/9=110,12=2,15=1,17=6,18=5,40=1/2;
 3/5=4,6=6,7=11,11=2,16=1,25=1,30=1,71=2,74=-55/1,2,3;
 4//1;
 5/5=2,8=3,13=1,38=5/2,8;
 8/6=4,10=90,11=11/1;
 11/6=1,8=1,9=11,15=111,16=1,31=1/1,2,10;
 10/6=1,31=1/2;
 6/7=2,8=2,9=2,10=2,18=1,28=1/1;
 7/10=1,25=1,30=1/1,2,3,16;
 1/5=1,10=4,14=-1,18=20/3(3);
 2/9=110,15=1/2;
 7/8=1,9=1,25=1,30=1,44=-1/16;
 99//99;
 2/9=110,15=1/2;
 3/5=4,6=6,7=11,11=2,16=1,25=1,30=1,71=2,74=-55/1,2,3;
 4/5=5,16=3/1;
 5/5=2,8=3,13=1,38=5/2,8;
 8/6=4,10=90,11=11/1;
 11/6=1,8=1,9=11,15=111,16=1,31=1/1,2,10;
 10/6=1,31=1/2;
 7/10=1,25=1,30=1/1,2,3,16;
 1/5=1,10=4,14=-1,18=20/3(-8);
 2/9=110,15=1/2;
 6/7=2,8=2,9=2,10=2,18=1,19=2,28=1/1;
 7/8=1,9=1,25=1,30=1,44=-1/16;
 99//99;
 Leave Link    1 at Mon Sep 19 12:10:58 2022, MaxMem=  268435456 cpu:       0.3
 (Enter /opt/gaussian/g09/l101.exe)
 -------
 Reactif
 -------
 Symbolic Z-matrix:
 Charge =  1 Multiplicity = 3
 C                    -2.72171  -0.17705   0.0004 
 C                    -1.86896  -1.08528  -0.00021 
 C                    -1.46201   1.82414  -0.00059 
 C                    -0.73231  -1.73221   0.00022 
 C                    -0.20741   2.09715  -0.0004 
 C                     0.52871  -1.85689  -0.00013 
 C                     1.00867   1.67153   0.00076 
 C                     1.7749   -1.50682  -0.00016 
 C                     2.10717   0.99706   0.00028 
 C                     2.18598  -0.28301  -0.00029 
 H                    -3.67823   0.30827   0.00071 
 
 NAtoms=     11 NQM=     11 NQMF=      0 NMic=      0 NMicF=      0 NTot=     11.
                    Isotopes and Nuclear Properties:
 (Nuclear quadrupole moments (NQMom) in fm**2, nuclear magnetic moments (NMagM)
  in nuclear magnetons)

  Atom         1           2           3           4           5           6           7           8           9          10
 IAtWgt=          12          12          12          12          12          12          12          12          12          12
 AtmWgt=  12.0000000  12.0000000  12.0000000  12.0000000  12.0000000  12.0000000  12.0000000  12.0000000  12.0000000  12.0000000
 NucSpn=           0           0           0           0           0           0           0           0           0           0
 AtZEff=   0.0000000   0.0000000   0.0000000   0.0000000   0.0000000   0.0000000   0.0000000   0.0000000   0.0000000   0.0000000
 NQMom=    0.0000000   0.0000000   0.0000000   0.0000000   0.0000000   0.0000000   0.0000000   0.0000000   0.0000000   0.0000000
 NMagM=    0.0000000   0.0000000   0.0000000   0.0000000   0.0000000   0.0000000   0.0000000   0.0000000   0.0000000   0.0000000

  Atom        11
 IAtWgt=           1
 AtmWgt=   1.0078250
 NucSpn=           1
 AtZEff=   0.0000000
 NQMom=    0.0000000
 NMagM=    2.7928460
 Leave Link  101 at Mon Sep 19 12:10:59 2022, MaxMem=  268435456 cpu:       0.6
 (Enter /opt/gaussian/g09/l103.exe)

 GradGradGradGradGradGradGradGradGradGradGradGradGradGradGradGradGradGrad
 Berny optimization.
 Initialization pass.
                           ----------------------------
                           !    Initial Parameters    !
                           ! (Angstroms and Degrees)  !
 --------------------------                            --------------------------
 ! Name  Definition              Value          Derivative Info.                !
 --------------------------------------------------------------------------------
 ! R1    R(1,2)                  1.2458         calculate D2E/DX2 analytically  !
 ! R2    R(1,11)                 1.0726         calculate D2E/DX2 analytically  !
 ! R3    R(2,4)                  1.3079         calculate D2E/DX2 analytically  !
 ! R4    R(3,5)                  1.284          calculate D2E/DX2 analytically  !
 ! R5    R(4,6)                  1.2672         calculate D2E/DX2 analytically  !
 ! R6    R(5,7)                  1.2884         calculate D2E/DX2 analytically  !
 ! R7    R(6,8)                  1.2944         calculate D2E/DX2 analytically  !
 ! R8    R(7,9)                  1.289          calculate D2E/DX2 analytically  !
 ! R9    R(8,10)                 1.291          calculate D2E/DX2 analytically  !
 ! R10   R(9,10)                 1.2825         calculate D2E/DX2 analytically  !
 ! A1    A(2,1,11)             160.0981         calculate D2E/DX2 analytically  !
 ! A2    A(1,2,4)              162.8423         calculate D2E/DX2 analytically  !
 ! A3    A(2,4,6)              155.9999         calculate D2E/DX2 analytically  !
 ! A4    A(3,5,7)              148.4339         calculate D2E/DX2 analytically  !
 ! A5    A(4,6,8)              158.663          calculate D2E/DX2 analytically  !
 ! A6    A(5,7,9)              167.7398         calculate D2E/DX2 analytically  !
 ! A7    A(6,8,10)             124.2574         calculate D2E/DX2 analytically  !
 ! A8    A(7,9,10)             125.0728         calculate D2E/DX2 analytically  !
 ! A9    A(8,10,9)             157.9099         calculate D2E/DX2 analytically  !
 ! D1    D(11,1,2,4)          -179.8752         calculate D2E/DX2 analytically  !
 ! D2    D(1,2,4,6)             -0.2376         calculate D2E/DX2 analytically  !
 ! D3    D(2,4,6,8)              0.1188         calculate D2E/DX2 analytically  !
 ! D4    D(3,5,7,9)              0.4073         calculate D2E/DX2 analytically  !
 ! D5    D(4,6,8,10)            -0.0463         calculate D2E/DX2 analytically  !
 ! D6    D(5,7,9,10)            -0.3261         calculate D2E/DX2 analytically  !
 ! D7    D(6,8,10,9)             0.0845         calculate D2E/DX2 analytically  !
 ! D8    D(7,9,10,8)            -0.07           calculate D2E/DX2 analytically  !
 --------------------------------------------------------------------------------
 Trust Radius=3.00D-01 FncErr=1.00D-07 GrdErr=1.00D-06
 Number of steps in this run=  37 maximum allowed number of steps= 100.
 Search for a saddle point of order  1.
 GradGradGradGradGradGradGradGradGradGradGradGradGradGradGradGradGradGrad

 Leave Link  103 at Mon Sep 19 12:10:59 2022, MaxMem=  268435456 cpu:       0.1
 (Enter /opt/gaussian/g09/l202.exe)
                          Input orientation:                          
 ---------------------------------------------------------------------
 Center     Atomic      Atomic             Coordinates (Angstroms)
 Number     Number       Type             X           Y           Z
 ---------------------------------------------------------------------
      1          6           0       -2.721714   -0.177047    0.000403
      2          6           0       -1.868955   -1.085279   -0.000208
      3          6           0       -1.462009    1.824143   -0.000588
      4          6           0       -0.732306   -1.732209    0.000222
      5          6           0       -0.207405    2.097147   -0.000403
      6          6           0        0.528705   -1.856887   -0.000129
      7          6           0        1.008674    1.671526    0.000760
      8          6           0        1.774903   -1.506821   -0.000160
      9          6           0        2.107168    0.997056    0.000278
     10          6           0        2.185978   -0.283006   -0.000292
     11          1           0       -3.678229    0.308270    0.000706
 ---------------------------------------------------------------------
                    Distance matrix (angstroms):
                    1          2          3          4          5
     1  C    0.000000
     2  C    1.245826   0.000000
     3  C    2.364660   2.937744   0.000000
     4  C    2.525128   1.307857   3.630442   0.000000
     5  C    3.390237   3.590067   1.283964   3.865163   0.000000
     6  C    3.658837   2.518760   4.184845   1.267160   4.021970
     7  C    4.163294   3.985063   2.475393   3.823143   1.288411
     8  C    4.689122   3.668160   4.644666   2.517319   4.113165
     9  C    4.969569   4.488393   3.663755   3.938464   2.562703
    10  C    4.908836   4.133536   4.212824   3.258308   3.375413
    11  H    1.072592   2.283736   2.685052   3.583576   3.904702
                    6          7          8          9         10
     6  C    0.000000
     7  C    3.560908   0.000000
     8  C    1.294433   3.269403   0.000000
     9  C    3.261370   1.289030   2.525827   0.000000
    10  C    2.285532   2.281719   1.291010   1.282486   0.000000
    11  H    4.731406   4.881140   5.747278   5.826255   5.893940
                   11
    11  H    0.000000
 Symmetry turned off by external request.
 Stoichiometry    C10H(1+,3)
 Framework group  C1[X(C10H)]
 Deg. of freedom    27
 Full point group                 C1      NOp   1
 Rotational constants (GHZ):      1.9562294      1.4823055      0.8433039
 Leave Link  202 at Mon Sep 19 12:10:59 2022, MaxMem=  268435456 cpu:       0.1
 (Enter /opt/gaussian/g09/l301.exe)
 Standard basis: 6-311+G(d) (5D, 7F)
 Ernie: Thresh=  0.10000D-02 Tol=  0.10000D-05 Strict=F.
 Integral buffers will be    131072 words long.
 Raffenetti 2 integral format.
 Two-electron integral symmetry is turned off.
   223 basis functions,   365 primitive gaussians,   233 cartesian basis functions
    31 alpha electrons       29 beta electrons
       nuclear repulsion energy       347.9434994867 Hartrees.
 IExCor= 4336 DFT=T Ex+Corr=M062X ExCW=0 ScaHFX=  0.540000
 ScaDFX=  1.000000  1.000000  1.000000  1.000000 ScalE2=  1.000000  1.000000
 IRadAn=      0 IRanWt=     -1 IRanGd=            0 ICorTp=0
 NAtoms=   11 NActive=   11 NUniq=   11 SFac= 7.50D-01 NAtFMM=   80 NAOKFM=F Big=F
 Leave Link  301 at Mon Sep 19 12:10:59 2022, MaxMem=  268435456 cpu:       0.5
 (Enter /opt/gaussian/g09/l302.exe)
 NPDir=0 NMtPBC=     1 NCelOv=     1 NCel=       1 NClECP=     1 NCelD=      1
         NCelK=      1 NCelE2=     1 NClLst=     1 CellRange=     0.0.
 One-electron integrals computed using PRISM.
 NBasis=   223 RedAO= T  NBF=   223
 NBsUse=   219 1.00D-06 NBFU=   219
 Precomputing XC quadrature grid using
 IXCGrd= 2 IRadAn=           0 IRanWt=          -1 IRanGd=           0 AccXCQ= 1.00D-10.
 NRdTot=     705 NPtTot=       89504 NUsed=       94595 NTot=       94627
 NSgBfM=   233   233   233   233   233 NAtAll=    11    11.
 Leave Link  302 at Mon Sep 19 12:10:59 2022, MaxMem=  268435456 cpu:       2.0
 (Enter /opt/gaussian/g09/l303.exe)
 DipDrv:  MaxL=1.
 Leave Link  303 at Mon Sep 19 12:10:59 2022, MaxMem=  268435456 cpu:       0.3
 (Enter /opt/gaussian/g09/l401.exe)
 Harris functional with IExCor= 1009 diagonalized for initial guess.
 ExpMin= 4.38D-02 ExpMax= 4.56D+03 ExpMxC= 6.82D+02 IAcc=2 IRadAn=         0 AccDes= 0.00D+00
 HarFok:  IExCor= 1009 AccDes= 0.00D+00 IRadAn=         0 IDoV= 1
 ScaDFX=  1.000000  1.000000  1.000000  1.000000
 FoFCou: FMM=F IPFlag=           0 FMFlag=      100000 FMFlg1=           0
         NFxFlg=           0 DoJE=T BraDBF=F KetDBF=T FulRan=T
         Omega=  0.000000  0.000000  1.000000  0.000000  0.000000 ICntrl=     500 IOpCl=  0
         NMat0=    1 NMatS0=    1 NMatT0=    0 NMatD0=    1 NMtDS0=    0 NMtDT0=    0
         I1Cent=           4 NGrid=           0.
 Symmetry not used in FoFCou.
 Harris En= -380.667156372362    
 Initial guess <Sx>= 0.0000 <Sy>= 0.0000 <Sz>= 1.0000 <S**2>= 2.0000 S= 1.0000
 Leave Link  401 at Mon Sep 19 12:11:00 2022, MaxMem=  268435456 cpu:       5.6
 (Enter /opt/gaussian/g09/l502.exe)
 UHF open shell SCF:
 Requested convergence on RMS density matrix=1.00D-08 within  64 cycles.
 Requested convergence on MAX density matrix=1.00D-06.
 Requested convergence on             energy=1.00D-06.
 No special actions if energy rises.
 Using DIIS extrapolation, IDIIS=  1040.
 Two-electron integral symmetry not used.
        94483 words used for storage of precomputed grid.
 IEnd=      266172 IEndB=      266172 NGot=   268435456 MDV=   268228031
 LenX=   268228031 LenY=   268173301
 Fock matrices will be formed incrementally for  20 cycles.

 Cycle   1  Pass 1  IDiag  1:
 FoFCou: FMM=F IPFlag=           0 FMFlag=      100000 FMFlg1=           0
         NFxFlg=           0 DoJE=F BraDBF=F KetDBF=F FulRan=T
         Omega=  0.000000  0.000000  1.000000  0.000000  0.000000 ICntrl=       0 IOpCl=  1
         NMat0=    1 NMatS0=    1 NMatT0=    0 NMatD0=    1 NMtDS0=    0 NMtDT0=    0
         I1Cent=           0 NGrid=           0.
 Symmetry not used in FoFCou.
 E= -380.640043085726    
 DIIS: error= 3.05D-02 at cycle   1 NSaved=   1.
 NSaved= 1 IEnMin= 1 EnMin= -380.640043085726     IErMin= 1 ErrMin= 3.05D-02
 ErrMax= 3.05D-02 EMaxC= 1.00D-01 BMatC= 6.91D-01 BMatP= 6.91D-01
 IDIUse=3 WtCom= 6.95D-01 WtEn= 3.05D-01
 Coeff-Com:  0.100D+01
 Coeff-En:   0.100D+01
 Coeff:      0.100D+01
 Gap=     0.202 Goal=   None    Shift=    0.000
 Gap=     0.142 Goal=   None    Shift=    0.000
 GapD=    0.142 DampG=1.000 DampE=0.500 DampFc=0.5000 IDamp=-1.
 Damping current iteration by 5.00D-01
 RMSDP=3.48D-02 MaxDP=2.01D+00              OVMax= 1.20D-01

 Cycle   2  Pass 1  IDiag  1:
 RMSU=  7.34D-03    CP:  1.15D+00
 E= -380.705066676872     Delta-E=       -0.065023591146 Rises=F Damp=T
 DIIS: error= 9.57D-03 at cycle   2 NSaved=   2.
 NSaved= 2 IEnMin= 2 EnMin= -380.705066676872     IErMin= 2 ErrMin= 9.57D-03
 ErrMax= 9.57D-03 EMaxC= 1.00D-01 BMatC= 8.93D-02 BMatP= 6.91D-01
 IDIUse=3 WtCom= 9.04D-01 WtEn= 9.57D-02
 Coeff-Com: -0.238D+00 0.124D+01
 Coeff-En:   0.000D+00 0.100D+01
 Coeff:     -0.215D+00 0.121D+01
 Gap=     0.200 Goal=   None    Shift=    0.000
 Gap=     0.153 Goal=   None    Shift=    0.000
 RMSDP=2.20D-02 MaxDP=1.09D+00 DE=-6.50D-02 OVMax= 1.32D-01

 Cycle   3  Pass 1  IDiag  1:
 RMSU=  5.34D-03    CP:  1.36D+00  1.59D+00
 E= -380.746548651233     Delta-E=       -0.041481974361 Rises=F Damp=F
 DIIS: error= 1.31D-02 at cycle   3 NSaved=   3.
 NSaved= 3 IEnMin= 3 EnMin= -380.746548651233     IErMin= 2 ErrMin= 9.57D-03
 ErrMax= 1.31D-02 EMaxC= 1.00D-01 BMatC= 9.07D-02 BMatP= 8.93D-02
 IDIUse=3 WtCom= 8.69D-01 WtEn= 1.31D-01
 Coeff-Com: -0.229D+00 0.739D+00 0.490D+00
 Coeff-En:   0.000D+00 0.000D+00 0.100D+01
 Coeff:     -0.199D+00 0.642D+00 0.557D+00
 Gap=     0.207 Goal=   None    Shift=    0.000
 Gap=     0.157 Goal=   None    Shift=    0.000
 RMSDP=3.15D-03 MaxDP=1.81D-01 DE=-4.15D-02 OVMax= 1.02D-01

 Cycle   4  Pass 1  IDiag  1:
 RMSU=  1.95D-03    CP:  1.34D+00  1.48D+00  9.12D-01
 E= -380.763192376313     Delta-E=       -0.016643725080 Rises=F Damp=F
 DIIS: error= 9.46D-03 at cycle   4 NSaved=   4.
 NSaved= 4 IEnMin= 4 EnMin= -380.763192376313     IErMin= 4 ErrMin= 9.46D-03
 ErrMax= 9.46D-03 EMaxC= 1.00D-01 BMatC= 3.42D-02 BMatP= 8.93D-02
 IDIUse=3 WtCom= 9.05D-01 WtEn= 9.46D-02
 Coeff-Com: -0.956D-01 0.263D+00 0.392D+00 0.440D+00
 Coeff-En:   0.000D+00 0.000D+00 0.308D+00 0.692D+00
 Coeff:     -0.865D-01 0.238D+00 0.384D+00 0.464D+00
 Gap=     0.200 Goal=   None    Shift=    0.000
 Gap=     0.149 Goal=   None    Shift=    0.000
 RMSDP=1.12D-03 MaxDP=3.44D-02 DE=-1.66D-02 OVMax= 5.09D-02

 Cycle   5  Pass 1  IDiag  1:
 RMSU=  7.68D-04    CP:  1.34D+00  1.46D+00  9.28D-01  8.57D-01
 E= -380.772961462003     Delta-E=       -0.009769085691 Rises=F Damp=F
 DIIS: error= 4.36D-03 at cycle   5 NSaved=   5.
 NSaved= 5 IEnMin= 5 EnMin= -380.772961462003     IErMin= 5 ErrMin= 4.36D-03
 ErrMax= 4.36D-03 EMaxC= 1.00D-01 BMatC= 2.72D-03 BMatP= 3.42D-02
 IDIUse=3 WtCom= 9.56D-01 WtEn= 4.36D-02
 Coeff-Com: -0.156D-01 0.284D-01 0.160D+00 0.287D+00 0.540D+00
 Coeff-En:   0.000D+00 0.000D+00 0.000D+00 0.828D-02 0.992D+00
 Coeff:     -0.149D-01 0.271D-01 0.153D+00 0.275D+00 0.560D+00
 Gap=     0.201 Goal=   None    Shift=    0.000
 Gap=     0.151 Goal=   None    Shift=    0.000
 RMSDP=1.44D-03 MaxDP=1.20D-01 DE=-9.77D-03 OVMax= 2.20D-02

 Cycle   6  Pass 1  IDiag  1:
 RMSU=  4.95D-04    CP:  1.33D+00  1.48D+00  8.93D-01  8.07D-01  8.37D-01
 E= -380.774011859203     Delta-E=       -0.001050397200 Rises=F Damp=F
 DIIS: error= 2.40D-03 at cycle   6 NSaved=   6.
 NSaved= 6 IEnMin= 6 EnMin= -380.774011859203     IErMin= 6 ErrMin= 2.40D-03
 ErrMax= 2.40D-03 EMaxC= 1.00D-01 BMatC= 7.93D-04 BMatP= 2.72D-03
 IDIUse=3 WtCom= 9.76D-01 WtEn= 2.40D-02
 Coeff-Com:  0.164D-01-0.507D-01 0.104D-03 0.547D-01 0.371D+00 0.608D+00
 Coeff-En:   0.000D+00 0.000D+00 0.000D+00 0.000D+00 0.000D+00 0.100D+01
 Coeff:      0.160D-01-0.495D-01 0.102D-03 0.534D-01 0.363D+00 0.617D+00
 Gap=     0.202 Goal=   None    Shift=    0.000
 Gap=     0.153 Goal=   None    Shift=    0.000
 RMSDP=6.33D-04 MaxDP=5.71D-02 DE=-1.05D-03 OVMax= 1.59D-02

 Cycle   7  Pass 1  IDiag  1:
 RMSU=  1.95D-04    CP:  1.33D+00  1.47D+00  9.04D-01  9.19D-01  1.14D+00
                    CP:  9.63D-01
 E= -380.774511419605     Delta-E=       -0.000499560402 Rises=F Damp=F
 DIIS: error= 9.24D-04 at cycle   7 NSaved=   7.
 NSaved= 7 IEnMin= 7 EnMin= -380.774511419605     IErMin= 7 ErrMin= 9.24D-04
 ErrMax= 9.24D-04 EMaxC= 1.00D-01 BMatC= 1.73D-04 BMatP= 7.93D-04
 IDIUse=3 WtCom= 9.91D-01 WtEn= 9.24D-03
 Coeff-Com:  0.181D-01-0.422D-01-0.940D-01-0.144D+00-0.155D+00 0.265D+00
 Coeff-Com:  0.115D+01
 Coeff-En:   0.000D+00 0.000D+00 0.000D+00 0.000D+00 0.000D+00 0.000D+00
 Coeff-En:   0.100D+01
 Coeff:      0.179D-01-0.418D-01-0.932D-01-0.143D+00-0.154D+00 0.263D+00
 Coeff:      0.115D+01
 Gap=     0.203 Goal=   None    Shift=    0.000
 Gap=     0.155 Goal=   None    Shift=    0.000
 RMSDP=8.83D-04 MaxDP=5.39D-02 DE=-5.00D-04 OVMax= 1.90D-02

 Cycle   8  Pass 1  IDiag  1:
 RMSU=  1.69D-04    CP:  1.34D+00  1.50D+00  9.34D-01  9.91D-01  1.34D+00
                    CP:  1.36D+00  1.69D+00
 E= -380.774858374929     Delta-E=       -0.000346955324 Rises=F Damp=F
 DIIS: error= 3.23D-04 at cycle   8 NSaved=   8.
 NSaved= 8 IEnMin= 8 EnMin= -380.774858374929     IErMin= 8 ErrMin= 3.23D-04
 ErrMax= 3.23D-04 EMaxC= 1.00D-01 BMatC= 4.86D-05 BMatP= 1.73D-04
 IDIUse=3 WtCom= 9.97D-01 WtEn= 3.23D-03
 Coeff-Com:  0.333D-02-0.546D-02-0.332D-01-0.535D-01-0.153D+00-0.961D-01
 Coeff-Com:  0.409D+00 0.929D+00
 Coeff-En:   0.000D+00 0.000D+00 0.000D+00 0.000D+00 0.000D+00 0.000D+00
 Coeff-En:   0.000D+00 0.100D+01
 Coeff:      0.332D-02-0.544D-02-0.331D-01-0.533D-01-0.152D+00-0.958D-01
 Coeff:      0.408D+00 0.929D+00
 Gap=     0.203 Goal=   None    Shift=    0.000
 Gap=     0.156 Goal=   None    Shift=    0.000
 RMSDP=4.51D-04 MaxDP=3.70D-02 DE=-3.47D-04 OVMax= 1.02D-02

 Cycle   9  Pass 1  IDiag  1:
 RMSU=  9.27D-05    CP:  1.33D+00  1.50D+00  9.20D-01  1.03D+00  1.46D+00
                    CP:  1.56D+00  2.33D+00  1.21D+00
 E= -380.774948038914     Delta-E=       -0.000089663986 Rises=F Damp=F
 DIIS: error= 1.82D-04 at cycle   9 NSaved=   9.
 NSaved= 9 IEnMin= 9 EnMin= -380.774948038914     IErMin= 9 ErrMin= 1.82D-04
 ErrMax= 1.82D-04 EMaxC= 1.00D-01 BMatC= 2.04D-05 BMatP= 4.86D-05
 IDIUse=3 WtCom= 9.98D-01 WtEn= 1.82D-03
 Coeff-Com: -0.310D-02 0.821D-02 0.113D-01 0.196D-01-0.373D-01-0.149D+00
 Coeff-Com: -0.115D+00 0.483D+00 0.782D+00
 Coeff-En:   0.000D+00 0.000D+00 0.000D+00 0.000D+00 0.000D+00 0.000D+00
 Coeff-En:   0.000D+00 0.000D+00 0.100D+01
 Coeff:     -0.309D-02 0.820D-02 0.113D-01 0.195D-01-0.373D-01-0.148D+00
 Coeff:     -0.115D+00 0.483D+00 0.782D+00
 Gap=     0.203 Goal=   None    Shift=    0.000
 Gap=     0.156 Goal=   None    Shift=    0.000
 RMSDP=2.29D-04 MaxDP=2.44D-02 DE=-8.97D-05 OVMax= 4.56D-03

 Cycle  10  Pass 1  IDiag  1:
 RMSU=  5.16D-05    CP:  1.33D+00  1.50D+00  9.15D-01  1.04D+00  1.50D+00
                    CP:  1.68D+00  2.68D+00  1.64D+00  1.52D+00
 E= -380.774975365026     Delta-E=       -0.000027326112 Rises=F Damp=F
 DIIS: error= 1.55D-04 at cycle  10 NSaved=  10.
 NSaved=10 IEnMin=10 EnMin= -380.774975365026     IErMin=10 ErrMin= 1.55D-04
 ErrMax= 1.55D-04 EMaxC= 1.00D-01 BMatC= 4.84D-06 BMatP= 2.04D-05
 IDIUse=3 WtCom= 9.98D-01 WtEn= 1.55D-03
 Coeff-Com: -0.209D-02 0.460D-02 0.171D-01 0.281D-01 0.388D-01-0.349D-01
 Coeff-Com: -0.174D+00-0.155D+00 0.274D+00 0.100D+01
 Coeff-En:   0.000D+00 0.000D+00 0.000D+00 0.000D+00 0.000D+00 0.000D+00
 Coeff-En:   0.000D+00 0.000D+00 0.000D+00 0.100D+01
 Coeff:     -0.209D-02 0.459D-02 0.171D-01 0.281D-01 0.388D-01-0.348D-01
 Coeff:     -0.174D+00-0.155D+00 0.274D+00 0.100D+01
 Gap=     0.203 Goal=   None    Shift=    0.000
 Gap=     0.156 Goal=   None    Shift=    0.000
 RMSDP=1.76D-04 MaxDP=1.29D-02 DE=-2.73D-05 OVMax= 4.39D-03

 Cycle  11  Pass 1  IDiag  1:
 RMSU=  3.08D-05    CP:  1.33D+00  1.51D+00  9.12D-01  1.05D+00  1.51D+00
                    CP:  1.73D+00  2.95D+00  1.88D+00  2.15D+00  9.67D-01
 E= -380.774985999757     Delta-E=       -0.000010634731 Rises=F Damp=F
 DIIS: error= 9.76D-05 at cycle  11 NSaved=  11.
 NSaved=11 IEnMin=11 EnMin= -380.774985999757     IErMin=11 ErrMin= 9.76D-05
 ErrMax= 9.76D-05 EMaxC= 1.00D-01 BMatC= 2.20D-06 BMatP= 4.84D-06
 IDIUse=1 WtCom= 1.00D+00 WtEn= 0.00D+00
 Coeff-Com: -0.477D-03 0.816D-03 0.713D-02 0.111D-01 0.300D-01 0.103D-01
 Coeff-Com: -0.677D-01-0.175D+00-0.188D-01 0.509D+00 0.693D+00
 Coeff:     -0.477D-03 0.816D-03 0.713D-02 0.111D-01 0.300D-01 0.103D-01
 Coeff:     -0.677D-01-0.175D+00-0.188D-01 0.509D+00 0.693D+00
 Gap=     0.203 Goal=   None    Shift=    0.000
 Gap=     0.156 Goal=   None    Shift=    0.000
 RMSDP=8.65D-05 MaxDP=8.74D-03 DE=-1.06D-05 OVMax= 2.12D-03

 Cycle  12  Pass 1  IDiag  1:
 RMSU=  2.17D-05    CP:  1.33D+00  1.51D+00  9.11D-01  1.05D+00  1.52D+00
                    CP:  1.77D+00  3.00D+00  2.05D+00  2.42D+00  1.43D+00
                    CP:  1.28D+00
 E= -380.774988935916     Delta-E=       -0.000002936159 Rises=F Damp=F
 DIIS: error= 6.32D-05 at cycle  12 NSaved=  12.
 NSaved=12 IEnMin=12 EnMin= -380.774988935916     IErMin=12 ErrMin= 6.32D-05
 ErrMax= 6.32D-05 EMaxC= 1.00D-01 BMatC= 9.72D-07 BMatP= 2.20D-06
 IDIUse=1 WtCom= 1.00D+00 WtEn= 0.00D+00
 Coeff-Com:  0.799D-03-0.186D-02-0.531D-02-0.923D-02-0.114D-02 0.263D-01
 Coeff-Com:  0.521D-01-0.158D-01-0.175D+00-0.311D+00 0.435D+00 0.101D+01
 Coeff:      0.799D-03-0.186D-02-0.531D-02-0.923D-02-0.114D-02 0.263D-01
 Coeff:      0.521D-01-0.158D-01-0.175D+00-0.311D+00 0.435D+00 0.101D+01
 Gap=     0.203 Goal=   None    Shift=    0.000
 Gap=     0.156 Goal=   None    Shift=    0.000
 RMSDP=1.26D-04 MaxDP=1.22D-02 DE=-2.94D-06 OVMax= 2.90D-03

 Cycle  13  Pass 1  IDiag  1:
 RMSU=  1.94D-05    CP:  1.33D+00  1.52D+00  9.06D-01  1.05D+00  1.53D+00
                    CP:  1.82D+00  3.00D+00  2.19D+00  2.83D+00  1.59D+00
                    CP:  2.15D+00  2.24D+00
 E= -380.774991299578     Delta-E=       -0.000002363662 Rises=F Damp=F
 DIIS: error= 4.41D-05 at cycle  13 NSaved=  13.
 NSaved=13 IEnMin=13 EnMin= -380.774991299578     IErMin=13 ErrMin= 4.41D-05
 ErrMax= 4.41D-05 EMaxC= 1.00D-01 BMatC= 2.84D-07 BMatP= 9.72D-07
 IDIUse=1 WtCom= 1.00D+00 WtEn= 0.00D+00
 Coeff-Com:  0.622D-04-0.154D-03-0.290D-02-0.441D-02-0.537D-02 0.299D-02
 Coeff-Com:  0.160D-01 0.479D-01-0.159D-01-0.236D+00-0.980D-01 0.285D+00
 Coeff-Com:  0.101D+01
 Coeff:      0.622D-04-0.154D-03-0.290D-02-0.441D-02-0.537D-02 0.299D-02
 Coeff:      0.160D-01 0.479D-01-0.159D-01-0.236D+00-0.980D-01 0.285D+00
 Coeff:      0.101D+01
 Gap=     0.203 Goal=   None    Shift=    0.000
 Gap=     0.156 Goal=   None    Shift=    0.000
 RMSDP=6.75D-05 MaxDP=6.22D-03 DE=-2.36D-06 OVMax= 1.64D-03

 Cycle  14  Pass 1  IDiag  1:
 RMSU=  6.92D-06    CP:  1.33D+00  1.52D+00  9.05D-01  1.05D+00  1.54D+00
                    CP:  1.85D+00  3.00D+00  2.30D+00  3.00D+00  1.76D+00
                    CP:  2.60D+00  3.00D+00  1.37D+00
 E= -380.774992042058     Delta-E=       -0.000000742480 Rises=F Damp=F
 DIIS: error= 2.65D-05 at cycle  14 NSaved=  14.
 NSaved=14 IEnMin=14 EnMin= -380.774992042058     IErMin=14 ErrMin= 2.65D-05
 ErrMax= 2.65D-05 EMaxC= 1.00D-01 BMatC= 1.84D-07 BMatP= 2.84D-07
 IDIUse=1 WtCom= 1.00D+00 WtEn= 0.00D+00
 Coeff-Com: -0.462D-03 0.103D-02 0.806D-03 0.173D-02-0.706D-03-0.106D-01
 Coeff-Com: -0.218D-01 0.395D-01 0.846D-01-0.180D-01-0.278D+00-0.281D+00
 Coeff-Com:  0.696D+00 0.787D+00
 Coeff:     -0.462D-03 0.103D-02 0.806D-03 0.173D-02-0.706D-03-0.106D-01
 Coeff:     -0.218D-01 0.395D-01 0.846D-01-0.180D-01-0.278D+00-0.281D+00
 Coeff:      0.696D+00 0.787D+00
 Gap=     0.203 Goal=   None    Shift=    0.000
 Gap=     0.156 Goal=   None    Shift=    0.000
 RMSDP=4.91D-05 MaxDP=3.99D-03 DE=-7.42D-07 OVMax= 1.15D-03

 Cycle  15  Pass 1  IDiag  1:
 RMSU=  1.41D-05    CP:  1.33D+00  1.52D+00  9.04D-01  1.05D+00  1.55D+00
                    CP:  1.87D+00  3.00D+00  2.37D+00  3.00D+00  1.84D+00
                    CP:  2.97D+00  3.00D+00  1.82D+00  3.00D+00
 E= -380.774992387292     Delta-E=       -0.000000345234 Rises=F Damp=F
 DIIS: error= 1.32D-05 at cycle  15 NSaved=  15.
 NSaved=15 IEnMin=15 EnMin= -380.774992387292     IErMin=15 ErrMin= 1.32D-05
 ErrMax= 1.32D-05 EMaxC= 1.00D-01 BMatC= 5.40D-08 BMatP= 1.84D-07
 IDIUse=1 WtCom= 1.00D+00 WtEn= 0.00D+00
 Coeff-Com: -0.184D-03 0.416D-03 0.148D-02 0.174D-02 0.390D-02-0.330D-02
 Coeff-Com: -0.137D-01-0.139D-01 0.307D-01 0.837D-01-0.777D-02-0.151D+00
 Coeff-Com: -0.312D+00 0.372D-01 0.134D+01
 Coeff:     -0.184D-03 0.416D-03 0.148D-02 0.174D-02 0.390D-02-0.330D-02
 Coeff:     -0.137D-01-0.139D-01 0.307D-01 0.837D-01-0.777D-02-0.151D+00
 Coeff:     -0.312D+00 0.372D-01 0.134D+01
 Gap=     0.204 Goal=   None    Shift=    0.000
 Gap=     0.156 Goal=   None    Shift=    0.000
 RMSDP=3.94D-05 MaxDP=3.42D-03 DE=-3.45D-07 OVMax= 7.52D-04

 Cycle  16  Pass 1  IDiag  1:
 RMSU=  1.39D-05    CP:  1.33D+00  1.52D+00  9.03D-01  1.05D+00  1.56D+00
                    CP:  1.89D+00  3.00D+00  2.43D+00  3.00D+00  1.92D+00
                    CP:  3.00D+00  3.00D+00  2.16D+00  3.00D+00  1.82D+00
 E= -380.774992542843     Delta-E=       -0.000000155551 Rises=F Damp=F
 DIIS: error= 4.88D-06 at cycle  16 NSaved=  16.
 NSaved=16 IEnMin=16 EnMin= -380.774992542843     IErMin=16 ErrMin= 4.88D-06
 ErrMax= 4.88D-06 EMaxC= 1.00D-01 BMatC= 2.25D-08 BMatP= 5.40D-08
 IDIUse=1 WtCom= 1.00D+00 WtEn= 0.00D+00
 Coeff-Com: -0.182D-04 0.541D-04 0.733D-03 0.561D-03 0.274D-02 0.543D-03
 Coeff-Com: -0.325D-02-0.182D-01 0.334D-03 0.540D-01 0.718D-01 0.328D-02
 Coeff-Com: -0.370D+00-0.202D+00 0.710D+00 0.750D+00
 Coeff:     -0.182D-04 0.541D-04 0.733D-03 0.561D-03 0.274D-02 0.543D-03
 Coeff:     -0.325D-02-0.182D-01 0.334D-03 0.540D-01 0.718D-01 0.328D-02
 Coeff:     -0.370D+00-0.202D+00 0.710D+00 0.750D+00
 Gap=     0.204 Goal=   None    Shift=    0.000
 Gap=     0.156 Goal=   None    Shift=    0.000
 RMSDP=1.14D-05 MaxDP=7.73D-04 DE=-1.56D-07 OVMax= 1.87D-04

 Cycle  17  Pass 1  IDiag  1:
 RMSU=  1.22D-06    CP:  1.33D+00  1.53D+00  9.03D-01  1.05D+00  1.56D+00
                    CP:  1.89D+00  3.00D+00  2.44D+00  3.00D+00  1.93D+00
                    CP:  3.00D+00  3.00D+00  2.26D+00  3.00D+00  2.06D+00
                    CP:  1.31D+00
 E= -380.774992578899     Delta-E=       -0.000000036056 Rises=F Damp=F
 DIIS: error= 3.71D-06 at cycle  17 NSaved=  17.
 NSaved=17 IEnMin=17 EnMin= -380.774992578899     IErMin=17 ErrMin= 3.71D-06
 ErrMax= 3.71D-06 EMaxC= 1.00D-01 BMatC= 5.50D-09 BMatP= 2.25D-08
 IDIUse=1 WtCom= 1.00D+00 WtEn= 0.00D+00
 Coeff-Com:  0.153D-04-0.381D-04-0.371D-03-0.366D-03-0.105D-02 0.620D-03
 Coeff-Com:  0.239D-02 0.643D-02-0.383D-02-0.355D-01-0.135D-01 0.580D-01
 Coeff-Com:  0.129D+00 0.247D-01-0.601D+00-0.376D-01 0.147D+01
 Coeff:      0.153D-04-0.381D-04-0.371D-03-0.366D-03-0.105D-02 0.620D-03
 Coeff:      0.239D-02 0.643D-02-0.383D-02-0.355D-01-0.135D-01 0.580D-01
 Coeff:      0.129D+00 0.247D-01-0.601D+00-0.376D-01 0.147D+01
 Gap=     0.204 Goal=   None    Shift=    0.000
 Gap=     0.156 Goal=   None    Shift=    0.000
 RMSDP=9.58D-06 MaxDP=6.80D-04 DE=-3.61D-08 OVMax= 2.13D-04

 Cycle  18  Pass 1  IDiag  1:
 RMSU=  1.18D-06    CP:  1.33D+00  1.53D+00  9.03D-01  1.05D+00  1.56D+00
                    CP:  1.89D+00  3.00D+00  2.46D+00  3.00D+00  1.94D+00
                    CP:  3.00D+00  3.00D+00  2.33D+00  3.00D+00  2.26D+00
                    CP:  1.58D+00  2.14D+00
 E= -380.774992598626     Delta-E=       -0.000000019727 Rises=F Damp=F
 DIIS: error= 1.69D-06 at cycle  18 NSaved=  18.
 NSaved=18 IEnMin=18 EnMin= -380.774992598626     IErMin=18 ErrMin= 1.69D-06
 ErrMax= 1.69D-06 EMaxC= 1.00D-01 BMatC= 1.63D-09 BMatP= 5.50D-09
 IDIUse=1 WtCom= 1.00D+00 WtEn= 0.00D+00
 Coeff-Com: -0.208D-04 0.434D-04-0.866D-04-0.229D-05-0.597D-03-0.858D-03
 Coeff-Com: -0.711D-03 0.622D-02 0.398D-02-0.134D-01-0.252D-01-0.132D-01
 Coeff-Com:  0.957D-01 0.913D-01-0.146D+00-0.313D+00 0.166D-01 0.130D+01
 Coeff:     -0.208D-04 0.434D-04-0.866D-04-0.229D-05-0.597D-03-0.858D-03
 Coeff:     -0.711D-03 0.622D-02 0.398D-02-0.134D-01-0.252D-01-0.132D-01
 Coeff:      0.957D-01 0.913D-01-0.146D+00-0.313D+00 0.166D-01 0.130D+01
 Gap=     0.204 Goal=   None    Shift=    0.000
 Gap=     0.156 Goal=   None    Shift=    0.000
 RMSDP=4.37D-06 MaxDP=3.00D-04 DE=-1.97D-08 OVMax= 1.06D-04

 Cycle  19  Pass 1  IDiag  1:
 RMSU=  3.60D-07    CP:  1.33D+00  1.53D+00  9.03D-01  1.05D+00  1.56D+00
                    CP:  1.89D+00  3.00D+00  2.46D+00  3.00D+00  1.94D+00
                    CP:  3.00D+00  3.00D+00  2.35D+00  3.00D+00  2.31D+00
                    CP:  1.65D+00  2.73D+00  1.54D+00
 E= -380.774992603385     Delta-E=       -0.000000004759 Rises=F Damp=F
 DIIS: error= 1.35D-06 at cycle  19 NSaved=  19.
 NSaved=19 IEnMin=19 EnMin= -380.774992603385     IErMin=19 ErrMin= 1.35D-06
 ErrMax= 1.35D-06 EMaxC= 1.00D-01 BMatC= 5.84D-10 BMatP= 1.63D-09
 IDIUse=1 WtCom= 1.00D+00 WtEn= 0.00D+00
 Coeff-Com: -0.178D-04 0.402D-04 0.692D-04 0.102D-03 0.127D-04-0.640D-03
 Coeff-Com: -0.112D-02 0.159D-02 0.328D-02 0.161D-02-0.950D-02-0.214D-01
 Coeff-Com:  0.150D-01 0.446D-01 0.765D-01-0.158D+00-0.320D+00 0.525D+00
 Coeff-Com:  0.843D+00
 Coeff:     -0.178D-04 0.402D-04 0.692D-04 0.102D-03 0.127D-04-0.640D-03
 Coeff:     -0.112D-02 0.159D-02 0.328D-02 0.161D-02-0.950D-02-0.214D-01
 Coeff:      0.150D-01 0.446D-01 0.765D-01-0.158D+00-0.320D+00 0.525D+00
 Coeff:      0.843D+00
 Gap=     0.204 Goal=   None    Shift=    0.000
 Gap=     0.156 Goal=   None    Shift=    0.000
 RMSDP=9.49D-07 MaxDP=5.65D-05 DE=-4.76D-09 OVMax= 4.51D-05

 Cycle  20  Pass 1  IDiag  1:
 Restarting incremental Fock formation.
 E= -380.774992604510     Delta-E=       -0.000000001125 Rises=F Damp=F
 DIIS: error= 6.83D-07 at cycle  20 NSaved=  20.
 NSaved=20 IEnMin=20 EnMin= -380.774992604510     IErMin=20 ErrMin= 6.83D-07
 ErrMax= 6.83D-07 EMaxC= 1.00D-01 BMatC= 2.12D-10 BMatP= 5.84D-10
 IDIUse=1 WtCom= 1.00D+00 WtEn= 0.00D+00
 Coeff-Com:  0.195D-05-0.210D-05 0.591D-04 0.163D-04 0.207D-03 0.129D-03
 Coeff-Com: -0.112D-04-0.190D-02-0.301D-03 0.557D-02 0.673D-02-0.155D-02
 Coeff-Com: -0.370D-01-0.207D-01 0.829D-01 0.733D-01-0.932D-01-0.464D+00
 Coeff-Com:  0.322D+00 0.113D+01
 Coeff:      0.195D-05-0.210D-05 0.591D-04 0.163D-04 0.207D-03 0.129D-03
 Coeff:     -0.112D-04-0.190D-02-0.301D-03 0.557D-02 0.673D-02-0.155D-02
 Coeff:     -0.370D-01-0.207D-01 0.829D-01 0.733D-01-0.932D-01-0.464D+00
 Coeff:      0.322D+00 0.113D+01
 Gap=     0.204 Goal=   None    Shift=    0.000
 Gap=     0.156 Goal=   None    Shift=    0.000
 RMSDP=1.12D-06 MaxDP=7.58D-05 DE=-1.13D-09 OVMax= 4.76D-05

 Cycle  21  Pass 1  IDiag  1:
 RMSU=  5.85D-07    CP:  1.00D+00
 E= -380.774992605123     Delta-E=       -0.000000000613 Rises=F Damp=F
 DIIS: error= 3.26D-07 at cycle  21 NSaved=  20.
 NSaved=20 IEnMin=20 EnMin= -380.774992605123     IErMin=20 ErrMin= 3.26D-07
 ErrMax= 3.26D-07 EMaxC= 1.00D-01 BMatC= 3.15D-11 BMatP= 2.12D-10
 IDIUse=1 WtCom= 1.00D+00 WtEn= 0.00D+00
 Coeff-Com: -0.106D-05-0.198D-04-0.173D-04-0.678D-04 0.121D-03 0.109D-03
 Coeff-Com:  0.130D-03-0.552D-04-0.159D-02-0.623D-03 0.457D-02 0.701D-02
 Coeff-Com: -0.273D-02-0.396D-01 0.219D-01 0.105D+00-0.741D-01-0.241D+00
 Coeff-Com: -0.207D+00 0.143D+01
 Coeff:     -0.106D-05-0.198D-04-0.173D-04-0.678D-04 0.121D-03 0.109D-03
 Coeff:      0.130D-03-0.552D-04-0.159D-02-0.623D-03 0.457D-02 0.701D-02
 Coeff:     -0.273D-02-0.396D-01 0.219D-01 0.105D+00-0.741D-01-0.241D+00
 Coeff:     -0.207D+00 0.143D+01
 Gap=     0.204 Goal=   None    Shift=    0.000
 Gap=     0.156 Goal=   None    Shift=    0.000
 RMSDP=4.81D-07 MaxDP=2.50D-05 DE=-6.13D-10 OVMax= 2.14D-05

 Cycle  22  Pass 1  IDiag  1:
 RMSU=  2.01D-07    CP:  1.00D+00  1.10D+00
 E= -380.774992605243     Delta-E=       -0.000000000120 Rises=F Damp=F
 DIIS: error= 1.23D-07 at cycle  22 NSaved=  20.
 NSaved=20 IEnMin=20 EnMin= -380.774992605243     IErMin=20 ErrMin= 1.23D-07
 ErrMax= 1.23D-07 EMaxC= 1.00D-01 BMatC= 5.70D-12 BMatP= 3.15D-11
 IDIUse=1 WtCom= 1.00D+00 WtEn= 0.00D+00
 Coeff-Com: -0.802D-05-0.784D-05-0.191D-04-0.893D-05 0.944D-05 0.222D-03
 Coeff-Com:  0.386D-04-0.858D-03-0.752D-03 0.419D-03 0.446D-02 0.168D-02
 Coeff-Com: -0.127D-01-0.569D-02 0.172D-01 0.520D-01-0.458D-01-0.175D+00
 Coeff-Com:  0.765D-01 0.109D+01
 Coeff:     -0.802D-05-0.784D-05-0.191D-04-0.893D-05 0.944D-05 0.222D-03
 Coeff:      0.386D-04-0.858D-03-0.752D-03 0.419D-03 0.446D-02 0.168D-02
 Coeff:     -0.127D-01-0.569D-02 0.172D-01 0.520D-01-0.458D-01-0.175D+00
 Coeff:      0.765D-01 0.109D+01
 Gap=     0.204 Goal=   None    Shift=    0.000
 Gap=     0.156 Goal=   None    Shift=    0.000
 RMSDP=1.58D-07 MaxDP=8.09D-06 DE=-1.20D-10 OVMax= 7.26D-06

 Cycle  23  Pass 1  IDiag  1:
 RMSU=  4.01D-08    CP:  1.00D+00  1.21D+00  1.13D+00
 E= -380.774992605253     Delta-E=       -0.000000000010 Rises=F Damp=F
 DIIS: error= 1.40D-07 at cycle  23 NSaved=  20.
 NSaved=20 IEnMin=20 EnMin= -380.774992605253     IErMin=19 ErrMin= 1.23D-07
 ErrMax= 1.40D-07 EMaxC= 1.00D-01 BMatC= 2.65D-12 BMatP= 5.70D-12
 IDIUse=1 WtCom= 1.00D+00 WtEn= 0.00D+00
 Coeff-Com:  0.100D-05 0.488D-05-0.281D-04-0.338D-04 0.116D-03 0.849D-04
 Coeff-Com: -0.206D-03-0.381D-03-0.567D-03 0.178D-02 0.162D-02-0.852D-03
 Coeff-Com: -0.699D-02-0.871D-02 0.422D-01 0.144D-01-0.707D-01-0.204D+00
 Coeff-Com:  0.615D+00 0.618D+00
 Coeff:      0.100D-05 0.488D-05-0.281D-04-0.338D-04 0.116D-03 0.849D-04
 Coeff:     -0.206D-03-0.381D-03-0.567D-03 0.178D-02 0.162D-02-0.852D-03
 Coeff:     -0.699D-02-0.871D-02 0.422D-01 0.144D-01-0.707D-01-0.204D+00
 Coeff:      0.615D+00 0.618D+00
 Gap=     0.204 Goal=   None    Shift=    0.000
 Gap=     0.156 Goal=   None    Shift=    0.000
 RMSDP=8.67D-08 MaxDP=8.95D-06 DE=-9.78D-12 OVMax= 1.74D-06

 Cycle  24  Pass 1  IDiag  1:
 RMSU=  1.94D-08    CP:  1.00D+00  1.17D+00  1.34D+00  8.09D-01
 E= -380.774992605257     Delta-E=       -0.000000000005 Rises=F Damp=F
 DIIS: error= 6.33D-08 at cycle  24 NSaved=  20.
 NSaved=20 IEnMin=20 EnMin= -380.774992605257     IErMin=20 ErrMin= 6.33D-08
 ErrMax= 6.33D-08 EMaxC= 1.00D-01 BMatC= 3.18D-13 BMatP= 2.65D-12
 IDIUse=1 WtCom= 1.00D+00 WtEn= 0.00D+00
 Coeff-Com: -0.650D-05-0.112D-05 0.328D-05 0.272D-04 0.104D-04-0.739D-04
 Coeff-Com: -0.826D-04 0.935D-04 0.733D-04 0.244D-03 0.379D-03 0.411D-03
 Coeff-Com: -0.175D-02-0.610D-02 0.853D-02 0.307D-01-0.791D-02-0.241D+00
 Coeff-Com:  0.398D-02 0.121D+01
 Coeff:     -0.650D-05-0.112D-05 0.328D-05 0.272D-04 0.104D-04-0.739D-04
 Coeff:     -0.826D-04 0.935D-04 0.733D-04 0.244D-03 0.379D-03 0.411D-03
 Coeff:     -0.175D-02-0.610D-02 0.853D-02 0.307D-01-0.791D-02-0.241D+00
 Coeff:      0.398D-02 0.121D+01
 Gap=     0.204 Goal=   None    Shift=    0.000
 Gap=     0.156 Goal=   None    Shift=    0.000
 RMSDP=6.35D-08 MaxDP=6.51D-06 DE=-4.89D-12 OVMax= 1.30D-06

 Cycle  25  Pass 1  IDiag  1:
 RMSU=  1.14D-08    CP:  1.00D+00  1.13D+00  1.46D+00  8.42D-01  1.26D+00
 E= -380.774992605257     Delta-E=        0.000000000000 Rises=F Damp=F
 DIIS: error= 4.48D-08 at cycle  25 NSaved=  20.
 NSaved=20 IEnMin=19 EnMin= -380.774992605257     IErMin=20 ErrMin= 4.48D-08
 ErrMax= 4.48D-08 EMaxC= 1.00D-01 BMatC= 9.49D-14 BMatP= 3.18D-13
 IDIUse=1 WtCom= 1.00D+00 WtEn= 0.00D+00
 Coeff-Com:  0.407D-05 0.764D-05-0.151D-04-0.260D-04 0.392D-04 0.109D-03
 Coeff-Com:  0.998D-04-0.331D-03-0.384D-03-0.557D-03 0.187D-02 0.297D-02
 Coeff-Com: -0.802D-02-0.910D-02 0.538D-02 0.618D-01-0.987D-01-0.110D+00
 Coeff-Com: -0.447D+00 0.160D+01
 Coeff:      0.407D-05 0.764D-05-0.151D-04-0.260D-04 0.392D-04 0.109D-03
 Coeff:      0.998D-04-0.331D-03-0.384D-03-0.557D-03 0.187D-02 0.297D-02
 Coeff:     -0.802D-02-0.910D-02 0.538D-02 0.618D-01-0.987D-01-0.110D+00
 Coeff:     -0.447D+00 0.160D+01
 Gap=     0.204 Goal=   None    Shift=    0.000
 Gap=     0.156 Goal=   None    Shift=    0.000
 RMSDP=2.89D-08 MaxDP=2.63D-06 DE= 1.14D-13 OVMax= 1.16D-06

 Cycle  26  Pass 1  IDiag  1:
 RMSU=  6.53D-09    CP:  1.00D+00  1.12D+00  1.51D+00  8.77D-01  1.42D+00
                    CP:  1.55D+00
 E= -380.774992605254     Delta-E=        0.000000000003 Rises=F Damp=F
 DIIS: error= 2.28D-08 at cycle  26 NSaved=  20.
 NSaved=20 IEnMin=18 EnMin= -380.774992605257     IErMin=20 ErrMin= 2.28D-08
 ErrMax= 2.28D-08 EMaxC= 1.00D-01 BMatC= 3.02D-14 BMatP= 9.49D-14
 IDIUse=1 WtCom= 1.00D+00 WtEn= 0.00D+00
 Coeff-Com:  0.295D-05-0.769D-06-0.143D-04 0.596D-06 0.364D-04-0.221D-05
 Coeff-Com: -0.252D-04-0.646D-04-0.527D-04 0.257D-03 0.626D-03 0.219D-04
 Coeff-Com: -0.304D-02-0.547D-02 0.983D-02 0.440D-01 0.204D-01-0.320D+00
 Coeff-Com: -0.660D-01 0.132D+01
 Coeff:      0.295D-05-0.769D-06-0.143D-04 0.596D-06 0.364D-04-0.221D-05
 Coeff:     -0.252D-04-0.646D-04-0.527D-04 0.257D-03 0.626D-03 0.219D-04
 Coeff:     -0.304D-02-0.547D-02 0.983D-02 0.440D-01 0.204D-01-0.320D+00
 Coeff:     -0.660D-01 0.132D+01
 Gap=     0.204 Goal=   None    Shift=    0.000
 Gap=     0.156 Goal=   None    Shift=    0.000
 RMSDP=1.98D-08 MaxDP=1.78D-06 DE= 3.30D-12 OVMax= 7.87D-07

 Cycle  27  Pass 1  IDiag  1:
 RMSU=  2.64D-09    CP:  1.00D+00  1.11D+00  1.54D+00  8.63D-01  1.42D+00
                    CP:  2.04D+00  1.38D+00
 E= -380.774992605257     Delta-E=       -0.000000000003 Rises=F Damp=F
 DIIS: error= 1.04D-08 at cycle  27 NSaved=  20.
 NSaved=20 IEnMin=17 EnMin= -380.774992605257     IErMin=20 ErrMin= 1.04D-08
 ErrMax= 1.04D-08 EMaxC= 1.00D-01 BMatC= 5.83D-15 BMatP= 3.02D-14
 IDIUse=1 WtCom= 1.00D+00 WtEn= 0.00D+00
 Large coefficients: NSaved= 20 BigCof=    0.00 CofMax=   10.00 Det=-5.40D-15
 Inversion failed.  Reducing to 19 matrices.
 Large coefficients: NSaved= 19 BigCof=    0.00 CofMax=   10.00 Det=-5.45D-15
 Inversion failed.  Reducing to 18 matrices.
 Large coefficients: NSaved= 18 BigCof=    0.00 CofMax=   10.00 Det=-5.76D-15
 Inversion failed.  Reducing to 17 matrices.
 Large coefficients: NSaved= 17 BigCof=    0.00 CofMax=   10.00 Det=-5.76D-15
 Inversion failed.  Reducing to 16 matrices.
 Large coefficients: NSaved= 16 BigCof=    0.00 CofMax=   10.00 Det=-5.77D-15
 Inversion failed.  Reducing to 15 matrices.
 Coeff-Com:  0.476D-04 0.123D-04-0.144D-03-0.222D-03 0.107D-03 0.137D-02
 Coeff-Com:  0.173D-03-0.298D-02-0.759D-02 0.251D-01 0.264D-01-0.127D-01
 Coeff-Com: -0.247D+00 0.110D+00 0.111D+01
 Coeff:      0.476D-04 0.123D-04-0.144D-03-0.222D-03 0.107D-03 0.137D-02
 Coeff:      0.173D-03-0.298D-02-0.759D-02 0.251D-01 0.264D-01-0.127D-01
 Coeff:     -0.247D+00 0.110D+00 0.111D+01
 Gap=     0.204 Goal=   None    Shift=    0.000
 Gap=     0.156 Goal=   None    Shift=    0.000
 RMSDP=8.05D-09 MaxDP=5.39D-07 DE=-2.61D-12 OVMax= 3.05D-07

 SCF Done:  E(UM062X) =  -380.774992605     A.U. after   27 cycles
             Convg  =    0.8052D-08             -V/T =  2.0036
 <Sx>= 0.0000 <Sy>= 0.0000 <Sz>= 1.0000 <S**2>= 2.1377 S= 1.0452
 <L.S>= 0.000000000000E+00
 KE= 3.794018284567D+02 PE=-1.567140434247D+03 EE= 4.590201136980D+02
 Annihilation of the first spin contaminant:
 S**2 before annihilation     2.1377,   after     2.0113
 Leave Link  502 at Mon Sep 19 12:13:49 2022, MaxMem=  268435456 cpu:    1347.7
 (Enter /opt/gaussian/g09/l508.exe)
 QCSCF skips out because SCF is already converged.
 Leave Link  508 at Mon Sep 19 12:13:49 2022, MaxMem=  268435456 cpu:       0.0
 (Enter /opt/gaussian/g09/l801.exe)
 Range of M.O.s used for correlation:     1   219
 NBasis=   223 NAE=    31 NBE=    29 NFC=     0 NFV=     0
 NROrb=    219 NOA=    31 NOB=    29 NVA=   188 NVB=   190

 **** Warning!!: The largest alpha MO coefficient is  0.21075042D+03


 **** Warning!!: The largest beta MO coefficient is  0.23806326D+03

 Leave Link  801 at Mon Sep 19 12:13:49 2022, MaxMem=  268435456 cpu:       0.2
 (Enter /opt/gaussian/g09/l1101.exe)
 Using compressed storage, NAtomX=    11.
 Will process  12 centers per pass.
 Leave Link 1101 at Mon Sep 19 12:13:50 2022, MaxMem=  268435456 cpu:       5.4
 (Enter /opt/gaussian/g09/l1102.exe)
 Symmetrizing basis deriv contribution to polar:
 IMax=3 JMax=2 DiffMx= 0.00D+00
 Leave Link 1102 at Mon Sep 19 12:13:50 2022, MaxMem=  268435456 cpu:       0.3
 (Enter /opt/gaussian/g09/l1110.exe)
 Forming Gx(P) for the SCF density, NAtomX=    11.
 Integral derivatives from FoFDir/FoFCou, PRISM(SPDF).
 Do as many integral derivatives as possible in FoFDir.
 G2DrvN: MDV=     268435264.
 G2DrvN: will do    12 centers at a time, making    1 passes doing MaxLOS=2.
 Calling FoFCou, ICntrl=  3107 FMM=F I1Cent=   0 AccDes= 0.00D+00.
 FoFCou: FMM=F IPFlag=           0 FMFlag=      100000 FMFlg1=           0
         NFxFlg=           0 DoJE=F BraDBF=F KetDBF=F FulRan=T
         Omega=  0.000000  0.000000  1.000000  0.000000  0.000000 ICntrl=    3107 IOpCl=  1
         NMat0=    1 NMatS0=    1 NMatT0=    0 NMatD0=    1 NMtDS0=    0 NMtDT0=    0
         I1Cent=           0 NGrid=           0.
 Symmetry not used in FoFCou.
 FoFDir/FoFCou used for L=0 through L=2.
 End of G2Drv Frequency-dependent properties file   721 does not exist.
 End of G2Drv Frequency-dependent properties file   722 does not exist.
 Leave Link 1110 at Mon Sep 19 12:15:24 2022, MaxMem=  268435456 cpu:     755.4
 (Enter /opt/gaussian/g09/l1002.exe)
 Minotr:  UHF open shell wavefunction.
          IDoAtm=11111111111
          Direct CPHF calculation.
          Differentiating once with respect to electric field.
                with respect to dipole field.
          Differentiating once with respect to nuclear coordinates.
          Requested convergence is 1.0D-08 RMS, and 1.0D-07 maximum.
          Secondary convergence is 1.0D-12 RMS, and 1.0D-12 maximum.
          NewPWx=T KeepS1=F KeepF1=F KeepIn=T MapXYZ=F SortEE=F KeepMc=T.
          MDV=     268435342 using IRadAn=       2.
 Generate precomputed XC quadrature information.
          Solving linear equations simultaneously, MaxMat=       0.
 Symmetry not used in FoFDir.
 MinBra= 0 MaxBra= 2 Meth= 1.
 IRaf=       0 NMat=  36 IRICut=      90 DoRegI=T DoRafI=T ISym2E= 0 JSym2E=0.
          There are    36 degrees of freedom in the 1st order CPHF.  IDoFFX=5.
     34 vectors produced by pass  0 Test12= 3.15D-14 2.78D-09 XBig12= 6.41D+02 9.99D+00.
 AX will form    34 AO Fock derivatives at one time.
     33 vectors produced by pass  1 Test12= 3.15D-14 2.78D-09 XBig12= 1.67D+02 1.85D+00.
     33 vectors produced by pass  2 Test12= 3.15D-14 2.78D-09 XBig12= 1.02D+01 6.14D-01.
     33 vectors produced by pass  3 Test12= 3.15D-14 2.78D-09 XBig12= 4.63D-01 1.12D-01.
     33 vectors produced by pass  4 Test12= 3.15D-14 2.78D-09 XBig12= 8.47D-03 2.22D-02.
     33 vectors produced by pass  5 Test12= 3.15D-14 2.78D-09 XBig12= 1.14D-04 2.37D-03.
     33 vectors produced by pass  6 Test12= 3.15D-14 2.78D-09 XBig12= 1.04D-06 1.54D-04.
     33 vectors produced by pass  7 Test12= 3.15D-14 2.78D-09 XBig12= 9.58D-09 1.34D-05.
     27 vectors produced by pass  8 Test12= 3.15D-14 2.78D-09 XBig12= 1.01D-10 1.32D-06.
     13 vectors produced by pass  9 Test12= 3.15D-14 2.78D-09 XBig12= 2.40D-12 3.17D-07.
     11 vectors produced by pass 10 Test12= 3.15D-14 2.78D-09 XBig12= 3.15D-13 1.44D-07.
     11 vectors produced by pass 11 Test12= 3.15D-14 2.78D-09 XBig12= 4.28D-14 3.25D-08.
     10 vectors produced by pass 12 Test12= 3.15D-14 2.78D-09 XBig12= 5.88D-15 1.55D-08.
     10 vectors produced by pass 13 Test12= 3.15D-14 2.78D-09 XBig12= 2.39D-15 1.02D-08.
      9 vectors produced by pass 14 Test12= 3.15D-14 2.78D-09 XBig12= 1.56D-15 7.14D-09.
      8 vectors produced by pass 15 Test12= 3.15D-14 2.78D-09 XBig12= 1.00D-15 5.54D-09.
      5 vectors produced by pass 16 Test12= 3.15D-14 2.78D-09 XBig12= 1.08D-15 5.44D-09.
      5 vectors produced by pass 17 Test12= 3.15D-14 2.78D-09 XBig12= 1.81D-15 6.32D-09.
      4 vectors produced by pass 18 Test12= 3.15D-14 2.78D-09 XBig12= 7.63D-16 3.67D-09.
      4 vectors produced by pass 19 Test12= 3.15D-14 2.78D-09 XBig12= 7.03D-16 3.76D-09.
      4 vectors produced by pass 20 Test12= 3.15D-14 2.78D-09 XBig12= 8.89D-16 4.33D-09.
      3 vectors produced by pass 21 Test12= 3.15D-14 2.78D-09 XBig12= 6.79D-16 3.77D-09.
      1 vectors produced by pass 22 Test12= 3.15D-14 2.78D-09 XBig12= 6.12D-16 3.34D-09.
 Inverted reduced A of dimension   390 with in-core refinement.
 FullF1:  Do perturbations    1 to     3.
 Isotropic polarizability for W=    0.000000      121.71 Bohr**3.
 End of Minotr Frequency-dependent properties file   721 does not exist.
 End of Minotr Frequency-dependent properties file   722 does not exist.
 Leave Link 1002 at Mon Sep 19 12:22:36 2022, MaxMem=  268435456 cpu:    3439.8
 (Enter /opt/gaussian/g09/l601.exe)
 Copying SCF densities to generalized density rwf, IOpCl= 1 IROHF=0.

 **********************************************************************

            Population analysis using the SCF density.

 **********************************************************************

 Alpha  occ. eigenvalues --  -10.84685 -10.84449 -10.82154 -10.81952 -10.81923
 Alpha  occ. eigenvalues --  -10.81802 -10.81550 -10.80414 -10.78387 -10.76077
 Alpha  occ. eigenvalues --   -1.19934  -1.15631  -1.12740  -1.08257  -1.05242
 Alpha  occ. eigenvalues --   -0.97257  -0.93494  -0.88168  -0.83972  -0.80144
 Alpha  occ. eigenvalues --   -0.70631  -0.70217  -0.66079  -0.66020  -0.63573
 Alpha  occ. eigenvalues --   -0.61880  -0.59078  -0.54306  -0.51908  -0.49202
 Alpha  occ. eigenvalues --   -0.49024
 Alpha virt. eigenvalues --   -0.28674  -0.26382  -0.22024  -0.20193  -0.20119
 Alpha virt. eigenvalues --   -0.12563  -0.10534  -0.08984  -0.08707  -0.08242
 Alpha virt. eigenvalues --   -0.08222  -0.07509  -0.06659  -0.05561  -0.05191
 Alpha virt. eigenvalues --   -0.05184  -0.04123  -0.02802  -0.02429  -0.02074
 Alpha virt. eigenvalues --   -0.01444  -0.00994   0.00012   0.00054   0.00939
 Alpha virt. eigenvalues --    0.01639   0.02276   0.03199   0.04247   0.04493
 Alpha virt. eigenvalues --    0.05030   0.05895   0.06545   0.07239   0.07531
 Alpha virt. eigenvalues --    0.08056   0.08566   0.09958   0.10451   0.12006
 Alpha virt. eigenvalues --    0.12493   0.12635   0.15698   0.15977   0.16913
 Alpha virt. eigenvalues --    0.17653   0.18111   0.18846   0.19446   0.21156
 Alpha virt. eigenvalues --    0.23463   0.29550   0.30840   0.33464   0.34210
 Alpha virt. eigenvalues --    0.36972   0.37875   0.38098   0.38161   0.39817
 Alpha virt. eigenvalues --    0.40345   0.42907   0.43060   0.43477   0.44126
 Alpha virt. eigenvalues --    0.45181   0.46176   0.47262   0.48397   0.49329
 Alpha virt. eigenvalues --    0.49824   0.50632   0.53327   0.53787   0.53927
 Alpha virt. eigenvalues --    0.55208   0.56878   0.57177   0.59068   0.60033
 Alpha virt. eigenvalues --    0.61101   0.64120   0.66609   0.69622   0.70852
 Alpha virt. eigenvalues --    0.72063   0.74840   0.78983   0.82090   0.83491
 Alpha virt. eigenvalues --    0.84042   0.86196   0.86678   0.88578   0.89282
 Alpha virt. eigenvalues --    0.90512   0.91614   0.93585   0.94078   0.95793
 Alpha virt. eigenvalues --    0.99986   1.00572   1.02021   1.03746   1.05244
 Alpha virt. eigenvalues --    1.07418   1.12472   1.14327   1.14463   1.19217
 Alpha virt. eigenvalues --    1.21697   1.24451   1.28224   1.29437   1.29482
 Alpha virt. eigenvalues --    1.34434   1.41091   1.47561   1.50916   1.55364
 Alpha virt. eigenvalues --    1.55403   1.59495   1.63583   1.65198   1.69114
 Alpha virt. eigenvalues --    1.70209   1.71822   1.73585   1.73964   1.75931
 Alpha virt. eigenvalues --    1.83209   1.84587   1.91178   2.01930   2.02047
 Alpha virt. eigenvalues --    2.12175   2.16869   2.19363   2.32353   2.32760
 Alpha virt. eigenvalues --    2.38218   2.43426   2.45026   2.49063   2.53593
 Alpha virt. eigenvalues --    2.60559   2.60685   2.62449   2.64023   2.64824
 Alpha virt. eigenvalues --    2.67435   2.68660   2.70855   2.71015   2.74359
 Alpha virt. eigenvalues --    2.75347   2.77148   2.77755   2.79055   2.80403
 Alpha virt. eigenvalues --    2.81097   2.82848   2.84637   2.87876   2.92352
 Alpha virt. eigenvalues --    2.93939   3.00067   3.09348   3.11595   3.14611
 Alpha virt. eigenvalues --    3.24638   3.26274   3.29131   3.31874   3.44023
 Alpha virt. eigenvalues --    3.73371   4.00575   4.25138  23.02202  23.18760
 Alpha virt. eigenvalues --   23.43267  23.68644  23.89939  24.10211  24.38454
 Alpha virt. eigenvalues --   24.55755  24.78899  25.02572
  Beta  occ. eigenvalues --  -10.84585 -10.84461 -10.82230 -10.81615 -10.81481
  Beta  occ. eigenvalues --  -10.81267 -10.81117 -10.80354 -10.78535 -10.76072
  Beta  occ. eigenvalues --   -1.19160  -1.14658  -1.11506  -1.07258  -1.02799
  Beta  occ. eigenvalues --   -0.96044  -0.92422  -0.87253  -0.83205  -0.79146
  Beta  occ. eigenvalues --   -0.69094  -0.68610  -0.64049  -0.63673  -0.61556
  Beta  occ. eigenvalues --   -0.59080  -0.53506  -0.52272  -0.50519
  Beta virt. eigenvalues --   -0.34879  -0.33851  -0.25267  -0.23922  -0.20255
  Beta virt. eigenvalues --   -0.18650  -0.18018  -0.12640  -0.09733  -0.09057
  Beta virt. eigenvalues --   -0.08564  -0.08137  -0.07035  -0.06950  -0.06372
  Beta virt. eigenvalues --   -0.05560  -0.05266  -0.05132  -0.04493  -0.03141
  Beta virt. eigenvalues --   -0.02288  -0.02141  -0.01447  -0.01420  -0.00342
  Beta virt. eigenvalues --   -0.00155   0.00960   0.02237   0.02292   0.02764
  Beta virt. eigenvalues --    0.03910   0.04500   0.05229   0.05327   0.06379
  Beta virt. eigenvalues --    0.06945   0.07976   0.08325   0.08920   0.09922
  Beta virt. eigenvalues --    0.10028   0.11495   0.12342   0.12384   0.15481
  Beta virt. eigenvalues --    0.15823   0.16745   0.17758   0.18054   0.18816
  Beta virt. eigenvalues --    0.19693   0.21901   0.24147   0.30125   0.31434
  Beta virt. eigenvalues --    0.33790   0.34529   0.37574   0.38221   0.38360
  Beta virt. eigenvalues --    0.38444   0.40040   0.40692   0.43206   0.43421
  Beta virt. eigenvalues --    0.43874   0.44502   0.45819   0.46500   0.47414
  Beta virt. eigenvalues --    0.48980   0.49448   0.50003   0.50575   0.53690
  Beta virt. eigenvalues --    0.53696   0.53769   0.55817   0.56664   0.57560
  Beta virt. eigenvalues --    0.59044   0.60476   0.61809   0.64231   0.66667
  Beta virt. eigenvalues --    0.70286   0.71052   0.72508   0.75385   0.78765
  Beta virt. eigenvalues --    0.82435   0.83310   0.84150   0.86521   0.87669
  Beta virt. eigenvalues --    0.89440   0.89537   0.91463   0.92145   0.94131
  Beta virt. eigenvalues --    0.95142   0.96674   0.99810   1.01328   1.03152
  Beta virt. eigenvalues --    1.03438   1.05765   1.09492   1.13027   1.14971
  Beta virt. eigenvalues --    1.15817   1.19856   1.23202   1.25650   1.29609
  Beta virt. eigenvalues --    1.30544   1.30825   1.35563   1.41798   1.48174
  Beta virt. eigenvalues --    1.52140   1.56358   1.57023   1.60249   1.64372
  Beta virt. eigenvalues --    1.66054   1.70202   1.70857   1.72393   1.74314
  Beta virt. eigenvalues --    1.74988   1.76742   1.84102   1.85398   1.92277
  Beta virt. eigenvalues --    2.02627   2.03103   2.13373   2.17645   2.20254
  Beta virt. eigenvalues --    2.32983   2.34308   2.39179   2.44460   2.46766
  Beta virt. eigenvalues --    2.50844   2.54656   2.61387   2.61515   2.63254
  Beta virt. eigenvalues --    2.64143   2.65672   2.67753   2.68993   2.72555
  Beta virt. eigenvalues --    2.74513   2.76127   2.76692   2.78335   2.79651
  Beta virt. eigenvalues --    2.80543   2.81388   2.82279   2.84686   2.85911
  Beta virt. eigenvalues --    2.90004   2.93489   2.95622   3.02279   3.10866
  Beta virt. eigenvalues --    3.12261   3.15915   3.25307   3.26959   3.29660
  Beta virt. eigenvalues --    3.32240   3.45026   3.74115   4.01381   4.26286
  Beta virt. eigenvalues --   23.02340  23.19079  23.43687  23.69090  23.90552
  Beta virt. eigenvalues --   24.10966  24.38733  24.56057  24.79217  25.03161
          Condensed to atoms (all electrons):
              1          2          3          4          5          6
     1  C    9.944566  -2.410175  -1.050525   0.049415  -0.287767  -0.881646
     2  C   -2.410175   7.431673   0.741810   0.523972  -0.062914   1.231147
     3  C   -1.050525   0.741810   8.563718  -0.315119   1.540122   0.232936
     4  C    0.049415   0.523972  -0.315119   5.313493  -0.363883   0.823324
     5  C   -0.287767  -0.062914   1.540122  -0.363883   8.143308  -0.272463
     6  C   -0.881646   1.231147   0.232936   0.823324  -0.272463   8.238129
     7  C    1.152151  -0.841045  -2.852361   0.407212  -1.637533  -0.991990
     8  C    0.835065  -0.268179  -1.717578   1.583938  -3.145252   1.432368
     9  C   -0.912281  -0.142896   1.447666  -1.243113   3.793664  -2.164082
    10  C   -0.399892  -0.644888  -0.956932  -0.987698  -1.696878  -1.769741
    11  H    0.344996  -0.007316   0.003694  -0.005069  -0.011701  -0.000419
              7          8          9         10         11
     1  C    1.152151   0.835065  -0.912281  -0.399892   0.344996
     2  C   -0.841045  -0.268179  -0.142896  -0.644888  -0.007316
     3  C   -2.852361  -1.717578   1.447666  -0.956932   0.003694
     4  C    0.407212   1.583938  -1.243113  -0.987698  -0.005069
     5  C   -1.637533  -3.145252   3.793664  -1.696878  -0.011701
     6  C   -0.991990   1.432368  -2.164082  -1.769741  -0.000419
     7  C    9.821011   1.810012  -1.829917   0.823361  -0.000300
     8  C    1.810012  20.867139 -12.344307  -3.391801  -0.001961
     9  C   -1.829917 -12.344307  17.576905   1.506695  -0.000409
    10  C    0.823361  -3.391801   1.506695  14.454370  -0.000231
    11  H   -0.000300  -0.001961  -0.000409  -0.000231   0.299120
 Mulliken atomic charges:
              1
     1  C   -0.383906
     2  C    0.448811
     3  C    0.362569
     4  C    0.213529
     5  C    0.001298
     6  C    0.122438
     7  C    0.139399
     8  C    0.340556
     9  C    0.312075
    10  C   -0.936365
    11  H    0.379596
 Sum of Mulliken atomic charges =   1.00000
 Mulliken charges with hydrogens summed into heavy atoms:
              1
     1  C   -0.004311
     2  C    0.448811
     3  C    0.362569
     4  C    0.213529
     5  C    0.001298
     6  C    0.122438
     7  C    0.139399
     8  C    0.340556
     9  C    0.312075
    10  C   -0.936365
 Sum of Mulliken charges with hydrogens summed into heavy atoms =   1.00000
          Atomic-Atomic Spin Densities.
              1          2          3          4          5          6
     1  C    0.706721  -0.113243  -0.071322   0.057789   0.016559  -0.100570
     2  C   -0.113243  -0.000944   0.031842  -0.129272   0.032225   0.021976
     3  C   -0.071322   0.031842   0.920446  -0.065593   0.051483   0.089347
     4  C    0.057789  -0.129272  -0.065593   0.581358  -0.023280   0.014446
     5  C    0.016559   0.032225   0.051483  -0.023280   0.071909   0.079448
     6  C   -0.100570   0.021976   0.089347   0.014446   0.079448  -0.075298
     7  C    0.054131  -0.113297  -0.234251   0.070410  -0.095619  -0.188451
     8  C    0.085427  -0.049161  -0.158508   0.172127  -0.098958  -0.645764
     9  C   -0.031121   0.091466   0.091187  -0.095915  -0.008414   0.406911
    10  C   -0.012958   0.057856  -0.051682  -0.085446  -0.019105   0.339046
    11  H   -0.031947   0.023290   0.001920  -0.000010   0.000267   0.001533
              7          8          9         10         11
     1  C    0.054131   0.085427  -0.031121  -0.012958  -0.031947
     2  C   -0.113297  -0.049161   0.091466   0.057856   0.023290
     3  C   -0.234251  -0.158508   0.091187  -0.051682   0.001920
     4  C    0.070410   0.172127  -0.095915  -0.085446  -0.000010
     5  C   -0.095619  -0.098958  -0.008414  -0.019105   0.000267
     6  C   -0.188451  -0.645764   0.406911   0.339046   0.001533
     7  C    0.474872   0.206343   0.019623  -0.084928  -0.001485
     8  C    0.206343   1.454988  -0.402365  -0.276468   0.000060
     9  C    0.019623  -0.402365   0.100280  -0.025645   0.000175
    10  C   -0.084928  -0.276468  -0.025645   0.179405   0.000063
    11  H   -0.001485   0.000060   0.000175   0.000063  -0.018083
 Mulliken atomic spin densities:
              1
     1  C    0.559465
     2  C   -0.147260
     3  C    0.604869
     4  C    0.496615
     5  C    0.006515
     6  C   -0.057375
     7  C    0.107347
     8  C    0.287721
     9  C    0.146183
    10  C    0.020139
    11  H   -0.024218
 Sum of Mulliken atomic spin densities =   2.00000
 APT atomic charges:
              1
     1  C    0.220039
     2  C   -0.368211
     3  C   -0.017579
     4  C    0.299132
     5  C   -0.129095
     6  C    0.126176
     7  C    0.554918
     8  C   -0.172999
     9  C   -0.367379
    10  C    0.593723
    11  H    0.261274
 Sum of APT charges=   1.00000
 APT Atomic charges with hydrogens summed into heavy atoms:
              1
     1  C    0.481314
     2  C   -0.368211
     3  C   -0.017579
     4  C    0.299132
     5  C   -0.129095
     6  C    0.126176
     7  C    0.554918
     8  C   -0.172999
     9  C   -0.367379
    10  C    0.593723
    11  H    0.000000
 Sum of APT charges=   1.00000
 Electronic spatial extent (au):  <R**2>=           1185.9435
 Charge=              1.0000 electrons
 Dipole moment (field-independent basis, Debye):
    X=             -0.9444    Y=             -0.4682    Z=              0.0012  Tot=              1.0541
 Quadrupole moment (field-independent basis, Debye-Ang):
   XX=            -27.0079   YY=            -42.8052   ZZ=            -53.3477
   XY=             -0.6507   XZ=             -0.0038   YZ=              0.0022
 Traceless Quadrupole moment (field-independent basis, Debye-Ang):
   XX=             14.0458   YY=             -1.7516   ZZ=            -12.2941
   XY=             -0.6507   XZ=             -0.0038   YZ=              0.0022
 Octapole moment (field-independent basis, Debye-Ang**2):
  XXX=            -45.6341  YYY=             -3.9814  ZZZ=              0.0016  XYY=              4.0211
  XXY=              1.8040  XXZ=              0.0124  XZZ=              0.7122  YZZ=             -0.6015
  YYZ=              0.0020  XYZ=              0.0022
 Hexadecapole moment (field-independent basis, Debye-Ang**3):
 XXXX=           -679.3934 YYYY=           -702.8949 ZZZZ=            -56.8492 XXXY=            -21.0088
 XXXZ=             -0.0671 YYYX=              4.4043 YYYZ=              0.0073 ZZZX=             -0.0043
 ZZZY=              0.0028 XXYY=           -274.0729 XXZZ=           -171.8811 YYZZ=           -132.7291
 XXYZ=              0.0109 YYXZ=              0.0038 ZZXY=              0.5472
 N-N= 3.479434994867D+02 E-N=-2.335256172939D+03  KE= 5.676008684066D+02
  Exact polarizability: 177.484  -8.996 142.640   0.002  -0.007  45.016
 Approx polarizability: 344.453 -49.498 249.344   0.007   0.000  56.284
                          Isotropic Fermi Contact Couplings
        Atom                 a.u.       MegaHertz       Gauss      10(-4) cm-1
     1  C(13)              0.13821      77.68685      27.72060      25.91355
     2  C(13)             -0.04764     -26.78065      -9.55600      -8.93306
     3  C(13)              0.31877     179.17990      63.93584      59.76798
     4  C(13)              0.07969      44.79585      15.98427      14.94229
     5  C(13)              0.02502      14.06500       5.01874       4.69158
     6  C(13)             -0.05329     -29.95158     -10.68747      -9.99077
     7  C(13)              0.03522      19.79485       7.06330       6.60285
     8  C(13)              0.10632      59.76268      21.32481      19.93469
     9  C(13)              0.01069       6.01161       2.14509       2.00526
    10  C(13)             -0.01165      -6.54596      -2.33576      -2.18350
    11  H(1)              -0.01062     -23.74535      -8.47293      -7.92059
 --------------------------------------------------------
       Center         ----  Spin Dipole Couplings  ----
                      3XX-RR        3YY-RR        3ZZ-RR
 --------------------------------------------------------
     1   Atom       -0.127450      0.007042      0.120408
     2   Atom        0.087227      0.040468     -0.127696
     3   Atom        0.052828     -0.244796      0.191968
     4   Atom       -0.239843      0.063558      0.176285
     5   Atom        0.084946     -0.085252      0.000306
     6   Atom        0.108746      0.029951     -0.138698
     7   Atom       -0.067317     -0.039923      0.107240
     8   Atom       -0.114090     -0.015664      0.129753
     9   Atom       -0.032494     -0.065833      0.098327
    10   Atom        0.033909      0.009775     -0.043683
    11   Atom        0.042759     -0.013662     -0.029097
 --------------------------------------------------------
                        XY            XZ            YZ
 --------------------------------------------------------
     1   Atom        0.270312      0.000087     -0.000294
     2   Atom       -0.065088     -0.000062     -0.000060
     3   Atom       -0.294979      0.000310      0.000006
     4   Atom        0.182229     -0.000060     -0.000005
     5   Atom        0.020969      0.000066     -0.000085
     6   Atom       -0.061162      0.000029     -0.000051
     7   Atom        0.000422     -0.000016      0.000020
     8   Atom       -0.176589      0.000036      0.000149
     9   Atom        0.002708      0.000005     -0.000233
    10   Atom        0.093091     -0.000011     -0.000029
    11   Atom       -0.021978     -0.000030      0.000003
 --------------------------------------------------------


 ---------------------------------------------------------------------------------
              Anisotropic Spin Dipole Couplings in Principal Axis System
 ---------------------------------------------------------------------------------

       Atom             a.u.   MegaHertz   Gauss  10(-4) cm-1        Axes

              Baa    -0.3388   -45.458   -16.220   -15.163  0.7878 -0.6159 -0.0005
     1 C(13)  Bbb     0.1204    16.158     5.765     5.390  0.0015  0.0011  1.0000
              Bcc     0.2183    29.300    10.455     9.773  0.6159  0.7878 -0.0018
 
              Baa    -0.1277   -17.136    -6.114    -5.716  0.0004  0.0005  1.0000
     2 C(13)  Bbb    -0.0053    -0.713    -0.254    -0.238  0.5753  0.8179 -0.0007
              Bcc     0.1330    17.848     6.369     5.954  0.8179 -0.5753 -0.0001
 
              Baa    -0.4264   -57.215   -20.416   -19.085  0.5242  0.8516 -0.0003
     3 C(13)  Bbb     0.1920    25.760     9.192     8.593 -0.0051  0.0035  1.0000
              Bcc     0.2344    31.455    11.224    10.492  0.8516 -0.5242  0.0062
 
              Baa    -0.3253   -43.646   -15.574   -14.559  0.9055 -0.4244  0.0001
     4 C(13)  Bbb     0.1490    19.990     7.133     6.668  0.4244  0.9055  0.0011
              Bcc     0.1763    23.656     8.441     7.891 -0.0006 -0.0009  1.0000
 
              Baa    -0.0878   -11.782    -4.204    -3.930 -0.1205  0.9927  0.0010
     5 C(13)  Bbb     0.0003     0.041     0.015     0.014 -0.0005 -0.0011  1.0000
              Bcc     0.0875    11.740     4.189     3.916  0.9927  0.1205  0.0006
 
              Baa    -0.1387   -18.612    -6.641    -6.208  0.0000  0.0003  1.0000
     6 C(13)  Bbb    -0.0034    -0.457    -0.163    -0.152  0.4788  0.8779 -0.0002
              Bcc     0.1421    19.069     6.804     6.361  0.8779 -0.4788  0.0002
 
              Baa    -0.0673    -9.034    -3.224    -3.013  0.9999 -0.0154  0.0001
     7 C(13)  Bbb    -0.0399    -5.356    -1.911    -1.787  0.0154  0.9999 -0.0001
              Bcc     0.1072    14.391     5.135     4.800 -0.0001  0.0001  1.0000
 
              Baa    -0.2482   -33.305   -11.884   -11.109  0.7964  0.6048 -0.0003
     8 C(13)  Bbb     0.1184    15.894     5.671     5.302 -0.6048  0.7964 -0.0086
              Bcc     0.1298    17.412     6.213     5.808 -0.0049  0.0070  1.0000
 
              Baa    -0.0661    -8.864    -3.163    -2.957 -0.0804  0.9968  0.0014
     9 C(13)  Bbb    -0.0323    -4.331    -1.545    -1.445  0.9968  0.0804  0.0001
              Bcc     0.0983    13.195     4.708     4.401  0.0000 -0.0014  1.0000
 
              Baa    -0.0720    -9.666    -3.449    -3.224 -0.6601  0.7512  0.0005
    10 C(13)  Bbb    -0.0437    -5.862    -2.092    -1.955  0.0005 -0.0003  1.0000
              Bcc     0.1157    15.527     5.541     5.179  0.7512  0.6601 -0.0002
 
              Baa    -0.0291   -15.525    -5.540    -5.179  0.0006  0.0007  1.0000
    11 H(1)   Bbb    -0.0212   -11.318    -4.039    -3.775  0.3249  0.9457 -0.0009
              Bcc     0.0503    26.843     9.578     8.954  0.9457 -0.3249 -0.0004
 

 ---------------------------------------------------------------------------------

 No NMR shielding tensors so no spin-rotation constants.
 Leave Link  601 at Mon Sep 19 12:22:36 2022, MaxMem=  268435456 cpu:       2.5
 (Enter /opt/gaussian/g09/l701.exe)
 Compute integral second derivatives.
 ... and contract with generalized density number  0.
 Leave Link  701 at Mon Sep 19 12:22:36 2022, MaxMem=  268435456 cpu:       2.0
 (Enter /opt/gaussian/g09/l702.exe)
 L702 exits ... SP integral derivatives will be done elsewhere.
 Leave Link  702 at Mon Sep 19 12:22:36 2022, MaxMem=  268435456 cpu:       0.2
 (Enter /opt/gaussian/g09/l703.exe)
 Compute integral second derivatives, UseDBF=F ICtDFT=           0.
 Integral derivatives from FoFDir, PRISM(SPDF).
 Calling FoFJK, ICntrl=    100127 FMM=F ISym2X=0 I1Cent= 0 IOpClX= 1 NMat=1 NMatS=1 NMatT=0.
 FoFCou: FMM=F IPFlag=           0 FMFlag=      100000 FMFlg1=         800
         NFxFlg=           0 DoJE=F BraDBF=F KetDBF=F FulRan=T
         Omega=  0.000000  0.000000  1.000000  0.000000  0.000000 ICntrl=  100127 IOpCl=  1
         NMat0=    1 NMatS0=    1 NMatT0=    0 NMatD0=    1 NMtDS0=    0 NMtDT0=    0
         I1Cent=           0 NGrid=           0.
 Symmetry not used in FoFCou.
 Leave Link  703 at Mon Sep 19 12:24:28 2022, MaxMem=  268435456 cpu:     891.2
 (Enter /opt/gaussian/g09/l716.exe)
 Dipole        =-3.71541935D-01-1.84220719D-01 4.89257808D-04
 Polarizability= 1.77483746D+02-8.99634286D+00 1.42639536D+02
                 2.15677253D-03-7.18456104D-03 4.50156134D+01
 -------------------------------------------------------------------
 Center     Atomic                   Forces (Hartrees/Bohr)
 Number     Number              X              Y              Z
 -------------------------------------------------------------------
      1        6           0.000393071    0.000676628   -0.000036399
      2        6           0.000113807   -0.000021564    0.000065506
      3        6          -0.000457888   -0.000673725   -0.000001008
      4        6          -0.000084025    0.000019836   -0.000050259
      5        6           0.000050420   -0.000058891    0.000072361
      6        6           0.000070848    0.000015331    0.000012595
      7        6          -0.000003442    0.000054107   -0.000113417
      8        6          -0.000033781   -0.000015999   -0.000013845
      9        6          -0.000000318   -0.000021595    0.000028748
     10        6          -0.000043616    0.000012478    0.000034626
     11        1          -0.000005077    0.000013393    0.000001092
 -------------------------------------------------------------------
 Cartesian Forces:  Max     0.000676628 RMS     0.000201789
 Force constants in Cartesian coordinates: 
                1             2             3             4             5 
      1  0.780350D+00
      2 -0.571512D+00  0.411182D+00
      3 -0.345289D-03  0.325531D-03  0.625435D-01
      4 -0.396466D+00  0.274151D+00  0.250148D-03  0.738879D+00
      5  0.374164D+00 -0.339557D+00 -0.250414D-03 -0.519117D+00  0.506645D+00
      6  0.269926D-03 -0.247976D-03 -0.366215D-01 -0.132786D-03  0.173665D-03
      7 -0.501315D-02 -0.130841D-01  0.443427D-05 -0.153696D-01  0.115839D-01
      8  0.121433D-01  0.427770D-01 -0.856772D-05  0.170360D-01 -0.274895D-01
      9  0.000000D+00 -0.471770D-04 -0.815990D-02 -0.283809D-04  0.258901D-04
     10 -0.851697D-01  0.127592D+00  0.229309D-04 -0.269507D+00  0.111823D+00
     11  0.380945D-01 -0.428593D-01 -0.695079D-05  0.185863D+00 -0.117670D+00
     12  0.247023D-04 -0.143166D-04  0.356636D-02 -0.134082D-03  0.817363D-04
     13 -0.622705D-02  0.701960D-01 -0.132900D-04  0.480184D-01 -0.385975D-01
     14 -0.113581D-02  0.992278D-02 -0.270630D-05  0.691588D-02 -0.804373D-02
     15 -0.392871D-05  0.287241D-04  0.219744D-02  0.184932D-04 -0.138709D-04
     16  0.492868D-01 -0.660687D-01 -0.279737D-04 -0.178684D+00  0.111765D+00
     17  0.126749D-01 -0.160624D-01 -0.619149D-05 -0.170144D-01  0.705470D-02
     18 -0.147814D-04  0.201657D-04  0.191530D-02  0.235667D-04 -0.174693D-04
     19  0.367095D-02 -0.315632D-01  0.391025D-05 -0.194747D-01  0.177638D-01
     20 -0.556064D-02  0.138924D-01  0.000000D+00  0.101278D-01 -0.578162D-02
     21 -0.458647D-05 -0.744322D-05  0.267048D-04  0.513624D-05 -0.315410D-05
     22 -0.143720D-01  0.170017D-01  0.673241D-05  0.622616D-01 -0.480533D-01
     23 -0.154374D-01  0.637438D-02  0.104278D-04  0.395580D-01 -0.220062D-01
     24 -0.357393D-05 -0.545928D-05 -0.554151D-03  0.000000D+00  0.204381D-05
     25  0.285332D-02  0.126766D-01 -0.329943D-05  0.127813D-02 -0.384308D-02
     26  0.274520D-02 -0.207838D-01  0.129762D-05 -0.640938D-02  0.155672D-02
     27  0.333936D-05 -0.145045D-04 -0.909244D-03 -0.775772D-05  0.386082D-05
     28 -0.754939D-02  0.892768D-02  0.517457D-05  0.105354D-01 -0.177899D-02
     29  0.562693D-02  0.199110D-01 -0.574943D-05 -0.119928D-01  0.142667D-01
     30  0.542581D-05  0.105284D-04  0.774785D-03 -0.486748D-05  0.463766D-05
     31 -0.321365D+00  0.171683D+00  0.965222D-04  0.185291D-01 -0.157099D-01
     32  0.148197D+00 -0.847966D-01 -0.574410D-04  0.208819D-01 -0.897561D-02
     33  0.688938D-04 -0.480721D-04 -0.247793D-01  0.101515D-04 -0.692541D-05
                6             7             8             9            10 
      6  0.605515D-01
      7  0.367219D-05  0.613623D+00
      8  0.349677D-05  0.131008D+00  0.406034D-01
      9  0.177566D-02  0.106696D-03  0.322308D-04  0.148827D-01
     10 -0.163165D-03  0.107730D-01 -0.319005D-02  0.206313D-04  0.100473D+01
     11  0.765314D-04  0.232697D-02 -0.203551D-02 -0.649195D-05 -0.278730D+00
     12 -0.400738D-01  0.128262D-05 -0.713209D-05  0.222500D-02 -0.368235D-04
     13 -0.115891D-04 -0.527402D+00 -0.157143D+00 -0.546044D-04 -0.292267D-01
     14  0.000000D+00 -0.137133D+00 -0.462259D-01 -0.249098D-04 -0.139754D-01
     15  0.636621D-03 -0.698288D-04 -0.384440D-04 -0.163275D-01 -0.327353D-05
     16  0.427705D-04  0.504174D-02 -0.123752D-01 -0.109188D-04 -0.471233D+00
     17  0.386721D-05 -0.100065D-01  0.397380D-02 -0.499377D-05  0.106808D+00
     18  0.364591D-02  0.333290D-05  0.344921D-05 -0.309286D-02  0.134629D-03
     19  0.610175D-05 -0.121929D+00  0.950152D-02 -0.483903D-04  0.632878D-02
     20 -0.595667D-05  0.442436D-01 -0.477576D-02  0.167422D-04 -0.381771D-02
     21 -0.109395D-02 -0.728775D-05  0.179140D-04  0.391738D-02 -0.190233D-04
     22  0.000000D+00 -0.199934D-01  0.105333D-01 -0.180366D-05 -0.173377D+00
     23 -0.282055D-05 -0.715085D-02  0.893561D-02  0.000000D+00 -0.995796D-01
     24  0.666054D-02  0.428190D-05  0.161616D-05  0.342257D-02  0.143075D-04
     25  0.000000D+00  0.402964D-01 -0.815440D-03  0.311156D-05  0.111422D-01
     26  0.293803D-05 -0.595522D-01  0.820945D-02 -0.179271D-04 -0.270824D-01
     27  0.109122D-02 -0.441961D-04  0.000000D+00  0.361019D-02 -0.149647D-04
     28 -0.487327D-05  0.209222D-01 -0.236701D-02  0.944277D-05  0.000000D+00
     29 -0.183666D-05  0.431337D-01 -0.151747D-01  0.170476D-04  0.857129D-01
     30 -0.256907D-02  0.000000D+00 -0.566080D-05 -0.372507D-02  0.344066D-04
     31 -0.964597D-05 -0.948829D-03 -0.433125D-02  0.434371D-05 -0.446522D-02
     32 -0.177515D-05 -0.536953D-02 -0.879790D-02  0.982236D-05 -0.556076D-02
     33  0.599687D-02 -0.260632D-05  0.120764D-05  0.147183D-02  0.103443D-04
               11            12            13            14            15 
     11  0.181024D+00
     12 -0.471728D-04  0.600598D-01
     13  0.409084D-02 -0.396719D-05  0.105024D+01
     14  0.439778D-02 -0.118674D-05 -0.664264D-01  0.138186D+00
     15  0.000000D+00 -0.138267D-02  0.521491D-03 -0.152189D-03  0.427046D-01
     16  0.327029D-01  0.132190D-03 -0.805433D-02  0.147742D-01 -0.195452D-04
     17 -0.343306D-01 -0.120549D-04  0.167964D-01  0.146105D-02  0.764229D-05
     18 -0.126886D-04 -0.324269D-01 -0.888893D-05  0.220900D-05  0.188822D-02
     19  0.940948D-03  0.589271D-05 -0.420879D+00  0.178152D+00 -0.433083D-03
     20 -0.304404D-03  0.503272D-05  0.118734D+00 -0.101198D+00  0.170245D-03
     21  0.334263D-05  0.564271D-03 -0.460376D-03  0.167399D-03 -0.408785D-01
     22  0.251749D-01  0.182337D-04  0.380356D-01 -0.122124D-01  0.306071D-04
     23  0.158166D-01  0.977000D-05  0.312581D-01 -0.100915D-01  0.283775D-04
     24 -0.251142D-05 -0.153173D-02  0.451263D-05 -0.618426D-05 -0.314184D-02
     25 -0.111322D-02 -0.665296D-05 -0.108762D+00  0.248544D-01 -0.257552D-04
     26  0.107969D-01  0.112935D-04  0.142281D+00 -0.139465D-01  0.580001D-04
     27  0.492009D-05 -0.219045D-02  0.453276D-04  0.000000D+00  0.795506D-02
     28 -0.114994D-01 -0.108566D-05 -0.298890D-01  0.671099D-02 -0.124905D-04
     29 -0.171389D-01 -0.225584D-04 -0.112452D+00  0.265066D-01 -0.840426D-04
     30 -0.579632D-05  0.798842D-02 -0.304358D-04  0.158235D-04  0.710683D-02
     31  0.214847D-02  0.000000D+00 -0.585746D-02 -0.524331D-03 -0.268602D-05
     32  0.230293D-02 -0.341099D-05 -0.873721D-02 -0.968512D-03 -0.448554D-05
     33 -0.322601D-05  0.320166D-02  0.118202D-04  0.111388D-05 -0.758254D-03
               16            17            18            19            20 
     16  0.104302D+01
     17  0.620939D-01  0.116627D+00
     18 -0.154490D-03  0.359249D-05  0.513124D-01
     19  0.326325D-01 -0.102008D-01 -0.529027D-05  0.957135D+00
     20 -0.100059D-01  0.928959D-02 -0.781454D-05 -0.424317D+00  0.321216D+00
     21  0.344240D-04 -0.131509D-05 -0.406183D-02  0.295518D-03 -0.798253D-04
     22 -0.394777D+00 -0.146940D+00  0.000000D+00 -0.456126D-01  0.302502D-01
     23 -0.492844D-01 -0.383183D-01 -0.945692D-05 -0.635414D-01  0.215686D-01
     24  0.292025D-04  0.159438D-04 -0.262338D-01  0.467307D-05  0.223225D-05
     25 -0.265366D-01 -0.812722D-02  0.542862D-05 -0.390042D+00  0.243404D+00
     26  0.827284D-01 -0.205845D-02 -0.133386D-04  0.173538D+00 -0.141010D+00
     27  0.447244D-04  0.485546D-05  0.107792D-01  0.127105D-03 -0.480735D-04
     28 -0.528135D-01 -0.739289D-02  0.166587D-04 -0.542422D-02 -0.132065D-02
     29 -0.168429D+00 -0.498386D-01  0.318810D-04  0.145600D+00 -0.111052D+00
     30 -0.642882D-04 -0.113847D-04 -0.472234D-02  0.486636D-04 -0.547458D-04
     31  0.211802D-02  0.130817D-02  0.000000D+00  0.359434D-02 -0.173793D-02
     32  0.209846D-02  0.220212D-02  0.000000D+00  0.412654D-02 -0.184457D-02
     33 -0.609507D-05  0.000000D+00  0.996614D-03 -0.510093D-05  0.139911D-05
               21            22            23            24            25 
     21  0.727927D-01
     22 -0.252548D-04  0.576733D+00
     23 -0.222052D-04  0.299971D+00  0.555612D+00
     24  0.913618D-02 -0.508127D-04 -0.545173D-04  0.430927D-01
     25  0.173800D-03  0.311388D-01  0.481659D-01  0.378401D-05  0.463715D+00
     26 -0.111481D-03 -0.954674D-01 -0.131719D+00 -0.883157D-05 -0.291183D+00
     27 -0.382244D-01 -0.339024D-04 -0.574229D-04 -0.185939D-02 -0.141711D-03
     28  0.553238D-05 -0.603312D-01 -0.184571D+00 -0.683749D-05 -0.233827D-01
     29  0.345811D-04 -0.809164D-01 -0.407194D+00  0.546636D-04 -0.215373D-01
     30 -0.327990D-02  0.531744D-04  0.977373D-04 -0.275538D-01 -0.107553D-04
[...]
     14  0.956932D-01 -0.304690D-01 -0.656428D-02 -0.671102D-01  0.905996D-02
     15  0.602017D-01 -0.845324D-01 -0.638641D-01 -0.228606D+00 -0.925444D-01
     16  0.135220D+00 -0.736311D-01 -0.216054D-01 -0.147562D+00 -0.319261D-01
     17  0.120352D+00 -0.826406D-01 -0.920951D-01 -0.222134D+00 -0.106290D+00
     18  0.154294D+00 -0.126173D+00  0.205936D-02 -0.227964D+00  0.136187D-01
     19  0.141360D+00 -0.155034D+00 -0.783280D-01 -0.257918D+00 -0.575192D-01
     20  0.000000D+00  0.368736D-05 -0.168237D-05  0.293841D-05  0.169989D-05
     21  0.000000D+00  0.398569D-05  0.260393D-05  0.126032D-04  0.107846D-05
     22  0.000000D+00 -0.160569D-05 -0.221105D-05  0.656908D-05 -0.102049D-04
     23  0.176088D-05  0.000000D+00  0.000000D+00 -0.309858D-04  0.167007D-04
     24 -0.494367D-05  0.108941D-04  0.231477D-05  0.236310D-04 -0.372250D-05
     25 -0.170110D-04  0.153014D-04  0.603280D-05 -0.444053D-05  0.227460D-04
     26 -0.241321D-05  0.476226D-05 -0.160412D-05  0.335455D-04 -0.166325D-04
     27 -0.144471D-04  0.177226D-04  0.500611D-05  0.518895D-04 -0.640474D-05
               11            12            13            14            15 
     11  0.839977D-01
     12 -0.126770D+00  0.145025D+00
     13 -0.204884D+00 -0.293831D-01 -0.269015D+00
     14 -0.420262D-01 -0.135303D+00 -0.257140D+00  0.698617D-01
     15 -0.263117D+00 -0.171451D+00 -0.562891D+00 -0.299097D+00 -0.818739D+00
     16 -0.117875D+00 -0.265100D+00 -0.541076D+00 -0.353436D-01 -0.679044D+00
     17 -0.309494D+00 -0.298823D+00 -0.857858D+00 -0.346582D+00 -0.124413D+01
     18 -0.199722D+00 -0.364652D+00 -0.799026D+00 -0.150628D+00 -0.105390D+01
     19 -0.265970D+00 -0.364903D+00 -0.879944D+00 -0.251174D+00 -0.124515D+01
     20  0.151157D-05  0.000000D+00  0.125585D-05 -0.801723D-05 -0.153646D-05
     21  0.924532D-05  0.958375D-05  0.156882D-04  0.115030D-04  0.354088D-04
     22 -0.983452D-05  0.166754D-04 -0.114486D-04 -0.414428D-05  0.133835D-04
     23  0.000000D+00 -0.191382D-04 -0.603548D-04 -0.227763D-04 -0.641766D-04
     24  0.752394D-05  0.310716D-04  0.201175D-04  0.863516D-05  0.759320D-04
     25  0.201624D-04  0.255023D-04  0.245455D-04 -0.200978D-04  0.493654D-04
     26 -0.309337D-05  0.336311D-04  0.122337D-04 -0.301699D-05  0.668018D-04
     27  0.197141D-04  0.597076D-04  0.829655D-04  0.155941D-04  0.158705D-03
               16            17            18            19            20 
     16 -0.132692D+00
     17 -0.838610D+00 -0.162945D+01
     18 -0.501685D+00 -0.136620D+01 -0.846917D+00
     19 -0.709290D+00 -0.158680D+01 -0.115602D+01 -0.134045D+01
     20 -0.290651D-05 -0.450909D-05 -0.686603D-05 -0.121612D-04  0.642872D-02
     21  0.466140D-04  0.452736D-04  0.482601D-04  0.455346D-04  0.585037D-02
     22  0.433408D-04 -0.383877D-05  0.802770D-05 -0.468897D-05  0.746018D-02
     23 -0.315695D-04 -0.808330D-04 -0.747068D-04 -0.799416D-04  0.138494D-02
     24  0.106936D-03  0.744777D-04  0.740771D-04  0.656971D-04  0.879662D-02
     25  0.400255D-04  0.554700D-04  0.110963D-04  0.337333D-04  0.210834D-02
     26  0.147014D-03  0.471809D-04  0.677033D-04  0.415832D-04  0.755660D-02
     27  0.197638D-03  0.170264D-03  0.155177D-03  0.157676D-03  0.635079D-02
               21            22            23            24            25 
     21  0.139726D-01
     22  0.205069D-01  0.509904D-01
     23  0.567848D-02  0.163329D-01  0.234762D-01
     24  0.250634D-01  0.667785D-01  0.260207D-01  0.100512D+00
     25  0.939678D-02  0.268533D-01  0.299195D-01  0.428346D-01  0.447442D-01
     26  0.284753D-01  0.776871D-01  0.458500D-01  0.124526D+00  0.745138D-01
     27  0.246916D-01  0.682958D-01  0.446418D-01  0.108509D+00  0.730029D-01
               26            27 
     26  0.221314D+00
     27  0.200731D+00  0.192984D+00
 Leave Link  716 at Mon Sep 19 12:48:09 2022, MaxMem=  268435456 cpu:       0.3
 (Enter /opt/gaussian/g09/l103.exe)

 GradGradGradGradGradGradGradGradGradGradGradGradGradGradGradGradGradGrad
 Berny optimization.
 Internal  Forces:  Max     0.000262080 RMS     0.000098582
 Search for a saddle point.
 Step number   1 out of a maximum of    2
 All quantities printed in internal units (Hartrees-Bohrs-Radians)
 Swaping is turned off.
 Second derivative matrix not updated -- analytic derivatives used.
     Eigenvalues ---   -6.23460   0.00170   0.00220   0.00341   0.00516
     Eigenvalues ---    0.00933   0.02682   0.02701   0.04327   0.05062
     Eigenvalues ---    0.05335   0.07502   0.08626   0.12303   0.15560
     Eigenvalues ---    0.37093   0.39090   0.50413   0.55518   0.56733
     Eigenvalues ---    0.62876   0.68711   0.72141   0.77345   0.79094
     Eigenvalues ---    0.87529   1.04428
 Eigenvectors required to have negative eigenvalues:
                          A7        A9        A8        A5        A3
   1                    0.52157   0.48042   0.39983   0.39139   0.27352
                          A6        A2        R1        A4        A1
   1                    0.24199   0.10361  -0.10025   0.09418   0.09250
 Angle between quadratic step and forces=  91.55 degrees.
 Linear search not attempted -- option 19 set.
 Iteration  1 RMS(Cart)=  0.00017809 RMS(Int)=  0.00000006
 Iteration  2 RMS(Cart)=  0.00000009 RMS(Int)=  0.00000000
 Variable       Old X    -DE/DX   Delta X   Delta X   Delta X     New X
                                 (Linear)    (Quad)   (Total)
    R1        2.35289   0.00002   0.00000  -0.00006  -0.00006   2.35283
    R2        2.02667   0.00001   0.00000   0.00001   0.00001   2.02668
    R3        2.47233   0.00000   0.00000   0.00005   0.00005   2.47239
    R4        2.42764   0.00000   0.00000   0.00002   0.00002   2.42765
    R5        2.39427  -0.00002   0.00000  -0.00004  -0.00004   2.39423
    R6        2.43408   0.00001   0.00000   0.00001   0.00001   2.43409
    R7        2.44604  -0.00001   0.00000   0.00004   0.00004   2.44608
    R8        2.43638  -0.00001   0.00000  -0.00001  -0.00001   2.43637
    R9        2.43982  -0.00004   0.00000  -0.00001  -0.00001   2.43981
   R10        2.42297  -0.00001   0.00000   0.00001   0.00001   2.42298
    A1        2.80275  -0.00001   0.00000   0.00027   0.00027   2.80302
    A2        2.84227  -0.00005   0.00000   0.00011   0.00011   2.84238
    A3        2.72471  -0.00014   0.00000  -0.00001  -0.00001   2.72470
    A4        2.59013  -0.00007   0.00000  -0.00016  -0.00016   2.58996
    A5        2.76674  -0.00020   0.00000  -0.00002  -0.00002   2.76672
    A6        2.92698  -0.00014   0.00000  -0.00005  -0.00005   2.92692
    A7        2.17151  -0.00026   0.00000   0.00006   0.00006   2.17158
    A8        2.18435  -0.00021   0.00000   0.00016   0.00016   2.18451
    A9        2.75526  -0.00025   0.00000  -0.00004  -0.00004   2.75522
    D1       -3.14148   0.00000   0.00000  -0.00011  -0.00011  -3.14158
    D2       -0.00045   0.00000   0.00000   0.00045   0.00045   0.00000
    D3        0.00039   0.00000   0.00000  -0.00040  -0.00040   0.00000
    D4        0.00088   0.00000   0.00000  -0.00087  -0.00087   0.00001
    D5       -0.00021   0.00000   0.00000   0.00021   0.00021   0.00000
    D6       -0.00074   0.00000   0.00000   0.00073   0.00073   0.00000
    D7        0.00026   0.00000   0.00000  -0.00026  -0.00026   0.00000
    D8       -0.00019   0.00000   0.00000   0.00019   0.00019   0.00000
         Item               Value     Threshold  Converged?
 Maximum Force            0.000262     0.000450     YES
 RMS     Force            0.000099     0.000300     YES
 Maximum Displacement     0.000461     0.001800     YES
 RMS     Displacement     0.000178     0.001200     YES
 Predicted change in Energy= 9.742639D-09
 Optimization completed.
    -- Stationary point found.
                           ----------------------------
                           !   Optimized Parameters   !
                           ! (Angstroms and Degrees)  !
 --------------------------                            --------------------------
 ! Name  Definition              Value          Derivative Info.                !
 --------------------------------------------------------------------------------
 ! R1    R(1,2)                  1.2451         -DE/DX =    0.0                 !
 ! R2    R(1,11)                 1.0725         -DE/DX =    0.0                 !
 ! R3    R(2,4)                  1.3083         -DE/DX =    0.0                 !
 ! R4    R(3,5)                  1.2847         -DE/DX =    0.0                 !
 ! R5    R(4,6)                  1.267          -DE/DX =    0.0                 !
 ! R6    R(5,7)                  1.2881         -DE/DX =    0.0                 !
 ! R7    R(6,8)                  1.2944         -DE/DX =    0.0                 !
 ! R8    R(7,9)                  1.2893         -DE/DX =    0.0                 !
 ! R9    R(8,10)                 1.2911         -DE/DX =    0.0                 !
 ! R10   R(9,10)                 1.2822         -DE/DX =    0.0                 !
 ! A1    A(2,1,11)             160.5858         -DE/DX =    0.0                 !
 ! A2    A(1,2,4)              162.85           -DE/DX =    0.0                 !
 ! A3    A(2,4,6)              156.1144         -DE/DX =   -0.0001              !
 ! A4    A(3,5,7)              148.4034         -DE/DX =   -0.0001              !
 ! A5    A(4,6,8)              158.5226         -DE/DX =   -0.0002              !
 ! A6    A(5,7,9)              167.7034         -DE/DX =   -0.0001              !
 ! A7    A(6,8,10)             124.4186         -DE/DX =   -0.0003              !
 ! A8    A(7,9,10)             125.1541         -DE/DX =   -0.0002              !
 ! A9    A(8,10,9)             157.8649         -DE/DX =   -0.0003              !
 ! D1    D(11,1,2,4)          -179.9933         -DE/DX =    0.0                 !
 ! D2    D(1,2,4,6)             -0.0258         -DE/DX =    0.0                 !
 ! D3    D(2,4,6,8)              0.0226         -DE/DX =    0.0                 !
 ! D4    D(3,5,7,9)              0.0504         -DE/DX =    0.0                 !
 ! D5    D(4,6,8,10)            -0.0119         -DE/DX =    0.0                 !
 ! D6    D(5,7,9,10)            -0.0421         -DE/DX =    0.0                 !
 ! D7    D(6,8,10,9)             0.015          -DE/DX =    0.0                 !
 ! D8    D(7,9,10,8)            -0.0108         -DE/DX =    0.0                 !
 --------------------------------------------------------------------------------
 GradGradGradGradGradGradGradGradGradGradGradGradGradGradGradGradGradGrad

 Leave Link  103 at Mon Sep 19 12:48:09 2022, MaxMem=  268435456 cpu:       0.1
 (Enter /opt/gaussian/g09/l9999.exe)
 1\1\GINC-NIGHTWING-NODE9\Freq\UM062X\6-311+G(d)\C10H1(1+,3)\CHRAYTEH\1
 9-Sep-2022\0\\#P Geom=AllCheck Guess=TCheck SCRF=Check GenChk UM062X/6
 -311+G(d) Freq\\Reactif\\1,3\C,-2.7240778749,-0.1817541567,0.000187705
 8\C,-1.8703082693,-1.0880297017,0.000119702\C,-1.4611292087,1.82708174
 87,0.0000715785\C,-0.7322810486,-1.7334356813,0.0001202777\C,-0.205775
 2182,2.0998724865,0.0000329594\C,0.5285079257,-1.8586818012,-0.0000145
 162\C,1.0096245777,1.6733704227,0.0000957554\C,1.7739671184,-1.5061513
 92,-0.0000700371\C,2.1073412593,0.997169979,-0.0000466662\C,2.18608037
 35,-0.2825921513,-0.0001288085\H,-3.6771396347,0.3100432475,0.00022104
 92\\Version=EM64L-G09RevA.02\HF=-380.7749825\S2=2.139025\S2-1=0.\S2A=2
 .011549\RMSD=3.914e-09\RMSF=1.300e-05\ZeroPoint=0.0538614\Thermal=0.06
 25794\Dipole=-0.3614087,-0.1846179,0.0000425\DipoleDeriv=0.4503794,0.1
 382366,0.0000417,-0.8679324,0.1815257,0.0000349,0.0000507,0.0000124,0.
 0363615,-1.4493273,-0.4094101,-0.0000186,0.8819697,0.2694725,0.0001187
 ,0.0002095,0.0000365,0.0365722,0.2863775,-0.2315812,0.0001694,0.545992
 7,-0.3385442,-0.0000807,-0.0002812,-0.0000535,-0.0038645,0.9954282,0.8
 358353,0.0001647,-0.2543371,-0.1626372,-0.0001311,0.000114,-0.0000052,
 0.1167278,-0.37799,0.841833,-0.0002117,-0.1087996,-0.0248242,-0.000219
 4,0.0003653,0.0000962,0.0182928,0.0879208,-1.0605652,-0.0001776,-0.212
 1952,0.1137869,0.0000098,-0.0002233,-0.0000007,0.1243477,0.5832459,-0.
 9380422,-0.0000664,-0.0676098,0.825963,0.0002494,0.0000402,0.000051,0.
 2620894,-0.4817776,0.4242148,0.0001676,-0.2212836,-0.0370131,0.0004752
 ,0.0001629,0.0000456,0.0196776,-0.2485369,0.284064,0.0001739,-0.374577
 6,-0.8112585,0.0003475,-0.0004696,-0.0001765,-0.0518321,0.7005506,0.17
 73579,-0.0002626,0.7760585,0.849688,-0.0007936,0.0001162,0.0000061,0.2
 435073,0.4537295,-0.0619429,0.0000197,-0.0972858,0.1338411,-0.0000106,
 -0.0000848,-0.0000118,0.1981203\Polar=177.6242374,-8.7819498,142.77438
 69,-0.0018309,0.0013599,45.0214451\PG=C01 [X(C10H1)]\NImag=1\\0.780552
 65,-0.57366111,0.41472460,-0.00003993,0.00003599,0.06235700,-0.3975742
 7,0.27470580,0.00002912,0.73807116,0.37505365,-0.33947151,-0.00002664,
 -0.51837930,0.50539974,0.00002785,-0.00002691,-0.03655565,-0.00002631,
 0.00002399,0.06037544,-0.00448365,-0.01436678,0.00000100,-0.01678222,0
 .01275025,-0.00000238,0.61226418,0.01135705,0.04230002,0.00000496,0.01
 748179,-0.02765848,0.00000462,0.13120585,0.04052892,0.00000225,0.00000
 019,-0.00781062,-0.00000423,0.00000772,0.00176679,-0.00001239,-0.00001
 016,0.01449138,-0.08610640,0.12881049,0.00000043,-0.26733901,0.1103637
 7,-0.00001610,0.01229586,-0.00384003,0.00001264,1.00401032,0.03814546,
 -0.04311948,-0.00000514,0.18465559,-0.11690140,0.00000236,0.00177502,-
 0.00173806,-0.00000648,-0.27850335,0.18036263,0.00000583,-0.00000917,0
 .00353092,-0.00000736,0.00000374,-0.03991358,-0.00000288,0.00000401,0.
 00215802,-0.00007014,0.00000793,0.05985563,-0.00684872,0.07068932,0.00
 000176,0.04990464,-0.04015693,0.00000390,-0.52713706,-0.15681304,0.000
 00969,-0.03149045,0.00493886,0.00000609,1.05214587,-0.00107655,0.00926
 385,-0.00001024,0.00651075,-0.00773545,-0.00000003,-0.13674324,-0.0455
 3907,-0.00000120,-0.01373100,0.00434869,-0.00000028,-0.06747645,0.1383
 2236,-0.00000384,-0.00000315,0.00213399,0.00000374,-0.00001067,0.00061
 467,0.00000769,0.00000971,-0.01615843,-0.00001411,0.00001141,-0.001345
 99,0.00001684,0.00000383,0.04251394,0.04955281,-0.06704110,0.00000430,
 -0.17922416,0.11130083,0.00002116,0.00381009,-0.01178495,-0.00001467,-
 0.47162279,0.03410030,0.00006241,-0.00604464,0.01482773,0.00001326,1.0
 4310676,0.01284885,-0.01637235,0.00000162,-0.01769385,0.00767123,0.000
 00166,-0.01015698,0.00400519,-0.00000019,0.10827545,-0.03447033,-0.000
 00653,0.01698469,0.00139469,-0.00000121,0.06166736,0.11656913,-0.00000
 225,0.00000854,0.00193609,0.00000960,-0.00000294,0.00362015,0.00000583
 ,-0.00000654,-0.00304331,0.00006689,-0.00000739,-0.03230182,-0.0000108
 4,-0.00000171,0.00186955,-0.00009904,-0.00000398,0.05108322,0.00390869
 ,-0.03207753,-0.00000450,-0.02061697,0.01863895,-0.00000003,-0.1202476
 6,0.00989545,0.00000009,0.00754072,0.00045489,-0.00000022,-0.42374701,
 0.17870084,-0.00002149,0.03153112,-0.01023239,-0.00000203,0.95735170,-
 0.00565332,0.01445051,0.00000811,0.01089484,-0.00637622,-0.00000211,0.
 04403309,-0.00507104,0.00000585,-0.00452754,-0.00007013,0.00000033,0.1
 1964880,-0.10157050,-0.00000432,-0.00956590,0.00939517,0.00000274,-0.4
 2502329,0.32182980,-0.00000110,0.00000032,0.00004295,0.00000279,-0.000
 00089,-0.00107477,0.00000774,0.00000473,0.00389018,-0.00000524,-0.0000
 0147,0.00054602,-0.00002940,0.00000230,-0.04081822,0.00000663,0.000002
 08,-0.00401925,-0.00002970,0.00002637,0.07269418,-0.01431614,0.0172147
 2,0.00000235,0.06193524,-0.04729314,-0.00000465,-0.01939759,0.01027278
 ,0.00000824,-0.17263032,0.02438883,0.00000934,0.03705453,-0.01233705,-
 0.00001083,-0.39522938,-0.14762188,0.00002228,-0.04510991,0.03019336,0
 .00000119,0.57746518,-0.01540578,0.00660194,0.00001082,0.03952165,-0.0
 2172051,-0.00000875,-0.00659355,0.00875165,0.00001895,-0.09945869,0.01
 538171,0.00000127,0.03051468,-0.01020761,-0.00003432,-0.05057935,-0.03
 846741,0.00001430,-0.06339310,0.02160165,0.00000598,0.30176829,0.55533
 757,-0.00000146,-0.00000200,-0.00057093,-0.00000022,-0.00000215,0.0066
 2917,-0.00000280,0.00000293,0.00336552,0.00000446,0.00000225,-0.001558
 46,0.00000434,0.00000464,-0.00314154,0.00002788,0.00000988,-0.02608091
 ,0.00000587,-0.00000738,0.00913987,-0.00004114,-0.00004406,0.04288240,
 0.00276342,0.01289699,0.00000753,0.00170810,-0.00416598,0.00000035,0.0
 3950450,-0.00102599,0.00000211,0.01080578,-0.00091326,-0.00000100,-0.1
 0782645,0.02504875,-0.00000695,-0.02632889,-0.00819222,0.00000329,-0.3
 8900381,0.24332164,0.00005327,0.03095799,0.04821199,-0.00000508,0.4623
 7536,0.00300202,-0.02123537,-0.00000125,-0.00748392,0.00253345,-0.0000
 0931,-0.05896672,0.00838536,0.00001914,-0.02573086,0.01024204,-0.00000
 558,0.14172999,-0.01434279,-0.00002922,0.08147302,-0.00198718,0.000011
 11,0.17352820,-0.14108727,-0.00002841,-0.09489019,-0.13165051,-0.00000
 769,-0.29122154,0.78502235,0.00000461,0.00000166,-0.00091458,-0.000007
 30,0.00001097,0.00107216,0.00000261,-0.00001311,0.00359048,0.00001806,
 -0.00000767,-0.00218164,-0.00000451,-0.00000619,0.00794535,-0.00001698
 ,-0.00000060,0.01075490,0.00004380,-0.00001667,-0.03811941,0.00000489,
 0.00001775,-0.00193411,-0.00004669,0.00009261,0.04805166,-0.00768023,0
 .00923777,-0.00001282,0.01115788,-0.00232270,-0.00000200,0.02107175,-0
 .00236148,-0.00000541,-0.00088570,-0.01126747,-0.00000176,-0.03010025,
 0.00676791,0.00001799,-0.05177337,-0.00720706,0.00000525,-0.00524025,-
 0.00154992,-0.00000627,-0.06099641,-0.18519760,0.00000915,-0.02323987,
 0.07587043,-0.00000098,0.14856791,0.00525842,0.02014601,-0.00001160,-0
 .01081930,0.01305074,0.00001448,0.04231148,-0.01513722,-0.00003353,0.0
 8395421,-0.01639457,0.00000383,-0.11144112,0.02693453,0.00005627,-0.16
 659282,-0.04993380,-0.00001305,0.14542345,-0.11125919,-0.00001099,-0.0
 8229869,-0.40660703,0.00004292,-0.02149118,-0.49910854,-0.00007742,0.1
 1890240,1.04267189,-0.00000002,-0.00000052,0.00079070,0.00000024,-0.00
 000214,-0.00252932,-0.00000435,0.00000225,-0.00368504,-0.00000075,0.00
 000288,0.00797192,0.00000326,0.00000374,0.00713447,0.00000058,-0.00000
 125,-0.00477363,0.00000611,-0.00000927,-0.00335807,0.00000861,0.000021
 77,-0.02734733,-0.00000306,-0.00004347,-0.02792792,-0.00001002,0.00002
 571,0.05296542,-0.31976817,0.17359142,0.00001076,0.01875961,-0.0157894
 0,-0.00000179,-0.00089821,-0.00438743,0.00000167,-0.00457800,0.0022251
 3,-0.00000031,-0.00591046,-0.00049168,-0.00000230,0.00222245,0.0013280
 3,0.00000101,0.00363337,-0.00177176,0.00000008,0.00026681,0.00061146,-
 0.00000100,-0.00171613,0.00268958,0.00000249,-0.00088146,-0.00320686,-
 0.00000060,0.30887019,0.15013133,-0.08728821,-0.00000662,0.02060593,-0
 .00879158,0.,-0.00524842,-0.00882727,-0.00000029,-0.00561246,0.0023589
 1,0.00000045,-0.00861880,-0.00086868,0.00000167,0.00219488,0.00219565,
 -0.00000107,0.00408452,-0.00184278,-0.00000001,0.00060298,0.00097854,0
 .00000067,-0.00246920,0.00322847,-0.00000133,-0.00087228,-0.00436282,0
 .00000030,-0.15479848,0.10321976,0.00000807,-0.00000495,-0.02493986,-0
 .00000008,-0.00000099,0.00599493,-0.00000009,-0.00000341,0.00143502,0.
 00000387,0.00000133,0.00323897,-0.00000112,0.00000514,-0.00074779,-0.0
 0000554,-0.00000149,0.00095500,0.00000210,-0.00000364,0.00107651,-0.00
 000028,-0.00000371,-0.00138367,-0.00000379,0.00000210,-0.00033690,0.00
 000687,0.00000339,0.00075880,-0.00001002,0.00000624,0.01394900\\-0.000
 01347,-0.00003641,0.00000320,-0.00000807,-0.00000112,-0.00000625,-0.00
 000677,0.00002613,0.00000062,-0.00001211,0.00000950,0.00000687,0.00002
 968,-0.00000013,-0.00000875,0.00002333,-0.00000376,-0.00000422,-0.0000
 1401,-0.00000103,0.00001455,-0.00001309,-0.00000476,0.00000414,0.00000
 921,-0.00001284,-0.00000411,-0.00000263,0.00002017,-0.00000550,0.00000
 791,0.00000424,-0.00000055\\\@


 THE MORE POWERFUL THE METHOD, THE MORE CATASTROPHIC THE ERRORS.
     -- M.D. KAMEN
 Job cpu time:  0 days  1 hours 24 minutes 23.2 seconds.
 File lengths (MBytes):  RWF=    181 Int=      0 D2E=      0 Chk=      5 Scr=      1
 Normal termination of Gaussian 09 at Mon Sep 19 12:48:09 2022.
