 Entering Gaussian System, Link 0=g16
 Initial command:
 /ccc/products/gaussian-16-C.01/system/amd64/g16/l1.exe "/ccc/scratch/cont003/gen7006/seydoum/sylvain/energie_reorganisation/OPI_energie_reorganisation/6_unit/6_left_right/freq/Gau-247516.inp" -scrdir="/ccc/scratch/cont003/gen7006/seydoum/sylvain/energie_reorganisation/OPI_energie_reorganisation/6_unit/6_left_right/freq/"
 Entering Link 1 = /ccc/products/gaussian-16-C.01/system/amd64/g16/l1.exe PID=    247517.
  
 Copyright (c) 1988-2019, Gaussian, Inc.  All Rights Reserved.
  
 This is part of the Gaussian(R) 16 program.  It is based on
 the Gaussian(R) 09 system (copyright 2009, Gaussian, Inc.),
 the Gaussian(R) 03 system (copyright 2003, Gaussian, Inc.),
 the Gaussian(R) 98 system (copyright 1998, Gaussian, Inc.),
 the Gaussian(R) 94 system (copyright 1995, Gaussian, Inc.),
 the Gaussian 92(TM) system (copyright 1992, Gaussian, Inc.),
 the Gaussian 90(TM) system (copyright 1990, Gaussian, Inc.),
 the Gaussian 88(TM) system (copyright 1988, Gaussian, Inc.),
 the Gaussian 86(TM) system (copyright 1986, Carnegie Mellon
 University), and the Gaussian 82(TM) system (copyright 1983,
 Carnegie Mellon University). Gaussian is a federally registered
 trademark of Gaussian, Inc.
  
 This software contains proprietary and confidential information,
 including trade secrets, belonging to Gaussian, Inc.
  
 This software is provided under written license and may be
 used, copied, transmitted, or stored only in accord with that
 written license.
  
 The following legend is applicable only to US Government
 contracts under FAR:
  
                    RESTRICTED RIGHTS LEGEND
  
 Use, reproduction and disclosure by the US Government is
 subject to restrictions as set forth in subparagraphs (a)
 and (c) of the Commercial Computer Software - Restricted
 Rights clause in FAR 52.227-19.
  
 Gaussian, Inc.
 340 Quinnipiac St., Bldg. 40, Wallingford CT 06492
  
  
 ---------------------------------------------------------------
 Warning -- This program may not be used in any manner that
 competes with the business of Gaussian, Inc. or will provide
 assistance to any competitor of Gaussian, Inc.  The licensee
 of this program is prohibited from giving any competitor of
 Gaussian, Inc. access to this program.  By using this program,
 the user acknowledges that Gaussian, Inc. is engaged in the
 business of creating and licensing software in the field of
 computational chemistry and represents and warrants to the
 licensee that it is not a competitor of Gaussian, Inc. and that
 it will not use this program in any manner prohibited above.
 ---------------------------------------------------------------
  

 Cite this work as:
 Gaussian 16, Revision C.01,
 M. J. Frisch, G. W. Trucks, H. B. Schlegel, G. E. Scuseria, 
 M. A. Robb, J. R. Cheeseman, G. Scalmani, V. Barone, 
 G. A. Petersson, H. Nakatsuji, X. Li, M. Caricato, A. V. Marenich, 
 J. Bloino, B. G. Janesko, R. Gomperts, B. Mennucci, H. P. Hratchian, 
 J. V. Ortiz, A. F. Izmaylov, J. L. Sonnenberg, D. Williams-Young, 
 F. Ding, F. Lipparini, F. Egidi, J. Goings, B. Peng, A. Petrone, 
 T. Henderson, D. Ranasinghe, V. G. Zakrzewski, J. Gao, N. Rega, 
 G. Zheng, W. Liang, M. Hada, M. Ehara, K. Toyota, R. Fukuda, 
 J. Hasegawa, M. Ishida, T. Nakajima, Y. Honda, O. Kitao, H. Nakai, 
 T. Vreven, K. Throssell, J. A. Montgomery, Jr., J. E. Peralta, 
 F. Ogliaro, M. J. Bearpark, J. J. Heyd, E. N. Brothers, K. N. Kudin, 
 V. N. Staroverov, T. A. Keith, R. Kobayashi, J. Normand, 
 K. Raghavachari, A. P. Rendell, J. C. Burant, S. S. Iyengar, 
 J. Tomasi, M. Cossi, J. M. Millam, M. Klene, C. Adamo, R. Cammi, 
 J. W. Ochterski, R. L. Martin, K. Morokuma, O. Farkas, 
 J. B. Foresman, and D. J. Fox, Gaussian, Inc., Wallingford CT, 2019.
 
 ******************************************
 Gaussian 16:  AS64L-G16RevC.01  3-Jul-2019
                 2-Nov-2022 
 ******************************************
 %chk=6_left_right.chk
 %rwf=6_left_right.rwf
 %mem=60GB
 %nprocshared=60
 Will use up to   60 processors via shared memory.
 ------------------------------------------------
 #p CAM-B3LYP/6-31+G* SCF=(maxcyc=800) freq nosym
 ------------------------------------------------
 1/10=4,30=1,38=1/1,3;
 2/12=2,15=1,17=6,18=5,40=1/2;
 3/5=1,6=6,7=11,11=2,25=1,30=1,71=2,74=-40,140=1/1,2,3;
 4//1;
 5/5=2,7=800,38=5,98=1/2;
 8/6=4,10=90,11=11/1;
 11/6=1,8=1,9=11,15=111,16=1,31=1/1,2,10;
 10/6=1,31=1/2;
 6/7=2,8=2,9=2,10=2,28=1/1;
 7/8=1,10=1,25=1,30=1/1,2,3,16;
 1/10=4,30=1/3;
 99//99;
 Leave Link    1 at Wed Nov  2 19:27:25 2022, MaxMem=  8053063680 cpu:               2.8 elap:               0.1
 (Enter /ccc/products/gaussian-16-C.01/system/amd64/g16/l101.exe)
 ------------------
 6_unit_geom_neutre
 ------------------
 Symbolic Z-matrix:
 Charge =  1 Multiplicity = 2
 S                    -1.55096  -0.1814   -0.69868 
 H                    -1.5164   -2.44762  -2.37815 
 C                    -1.65857  -0.31272  -2.45932 
 C                    -1.61455  -1.58029  -3.02236 
 H                    -1.86958   1.78076  -2.8858 
 C                    -1.80371   0.78438  -3.30436 
 C                    -1.7102   -1.74169  -4.39219 
 H                    -1.69143  -2.73032  -4.83094 
 C                    -1.87939   0.62202  -4.67827 
 C                    -1.81662  -0.64375  -5.24313 
 H                    -2.02438   1.48911  -5.31283 
 N                    -1.89894  -0.88698  -6.62188 
 H                    -0.89162   0.81855  -7.15509 
 C                    -1.42476  -0.07671  -7.46512 
 H                    -2.62818  -2.07301  -8.72921 
 C                    -1.52949  -0.28674  -8.91195 
 C                    -2.1873   -1.37604  -9.4264 
 H                    -0.45157   1.47235  -9.39482 
 C                    -0.9643    0.61815  -9.79709 
 C                    -2.26964  -1.55077  -10.79189 
 H                    -2.78592  -2.40486  -11.19212 
 C                    -1.04616   0.44588  -11.16351 
 C                    -1.70048  -0.64579  -11.67812 
 H                    -0.6096    1.15019  -11.85555 
 C                    -1.79573  -0.8681   -13.10756 
 H                    -2.33709  -1.76198  -13.41273 
 N                    -1.31987  -0.0834   -13.98698 
 C                    -1.29133  -0.34962  -15.32344 
 H                    -0.69618  -2.37094  -15.11491 
 H                    -1.82098   1.63738  -15.84442 
 C                    -0.94494  -1.58371  -15.81271 
 C                    -1.56258   0.67742  -16.23969 
 C                    -0.9124   -1.78424  -17.16061 
 C                    -1.52658   0.47634  -17.58612 
 H                    -0.65864  -2.74529  -17.55645 
 H                    -1.77845   1.26823  -18.27736 
 C                    -1.1792   -0.75906  -18.07754 
 N                    -1.13014  -1.04374  -19.41259 
 H                    -0.45858   0.81809  -20.05434 
 C                    -0.8307   -0.18227  -20.31532 
 H                    -1.64534  -2.48468  -21.45462 
 C                    -0.92818  -0.47857  -21.73184 
 H                    -0.22705   1.47708  -22.3157 
 C                    -1.37807  -1.72641  -22.18572 
 C                    -0.57487   0.50982  -22.66812 
 C                    -1.47031  -1.97199  -23.53807 
 C                    -0.66709   0.26434  -24.02054 
 H                    -1.81821  -2.93925  -23.89001 
 C                    -1.11791  -0.98403  -24.47446 
 H                    -0.39901   1.02307  -24.75135 
 C                    -1.21168  -1.28207  -25.89094 
 H                    -1.58117  -2.28264  -26.1526 
 N                    -0.91616  -0.42025  -26.79455 
 H                    -0.2236   -2.78605  -27.94428 
 C                    -0.86413  -0.72646  -28.13393 
 H                    -1.36489   1.29524  -28.65193 
 C                    -0.49597  -1.9929   -28.63387 
 C                    -1.12844   0.31408  -29.04923 
 C                    -0.43667  -2.21077  -29.98699 
 C                    -1.09775   0.08918  -30.4033 
 H                    -0.13574  -3.17422  -30.38501 
 C                    -0.76949  -1.18706  -30.90154 
 H                    -1.29073   0.89958  -31.09997 
 N                    -0.68011  -1.46234  -32.24397 
 H                    -2.42396  -0.49225  -32.76517 
 C                    -1.51374  -1.00371  -33.0949 
 H                     0.51724  -2.17912  -34.4018 
 C                    -1.3526   -1.14562  -34.52261 
 C                    -0.23771  -1.77527  -35.06699 
 H                    -3.20166  -0.14016  -34.95309 
 C                    -2.33188  -0.62851  -35.37529 
 C                    -0.11366  -1.87808  -36.43113 
 H                     0.75401  -2.36884  -36.8552 
 C                    -2.20541  -0.73426  -36.73799 
 C                    -1.09092  -1.36004  -37.28219 
 H                    -2.95951  -0.33826  -37.4085 
 C                    -0.92876  -1.48778  -38.72688 
 H                    -0.02196  -2.00266  -39.06004 
 N                    -1.77913  -1.01333  -39.54253 
 H                    -0.71879  -3.12353  -40.84832 
 C                    -1.62507  -1.18894  -40.91947 
 C                    -1.05361  -2.31049  -41.48375 
 H                    -2.58756   0.66274  -41.3289 
 C                    -2.11512  -0.19959  -41.76972 
 C                    -0.95034  -2.4183   -42.85456 
 H                    -0.51721  -3.30936  -43.27869 
 C                    -1.99238  -0.29593  -43.13969 
 C                    -1.40648  -1.40883  -43.70008 
 H                    -2.3655    0.49873  -43.77757 
 S                    -1.22407  -1.61296  -45.44017 
 H                    -1.64558   1.14204  -0.63048 
 H                    -1.8503   -0.49905  -45.8179 
 
 ITRead=  0  0  0  0  0  0  0  0  0  0  0  0  0  0  0  0  0  0  0  0
 ITRead=  0  0  0  0  0  0  0  0  0  0  0  0  0  0  0  0  0  0  0  0
 ITRead=  0  0  0  0  0  0  0  0  0  0  0  0  0  0  0  0  0  0  0  0
 ITRead=  0  0  0  0  0  0  0  0  0  0  0  0  0  0  0  0  0  0  0  0
 ITRead=  0  0  0  0  0  0  0  0  0  0  0  0
 MicOpt= -1 -1 -1 -1 -1 -1 -1 -1 -1 -1 -1 -1 -1 -1 -1 -1 -1 -1 -1 -1
 MicOpt= -1 -1 -1 -1 -1 -1 -1 -1 -1 -1 -1 -1 -1 -1 -1 -1 -1 -1 -1 -1
 MicOpt= -1 -1 -1 -1 -1 -1 -1 -1 -1 -1 -1 -1 -1 -1 -1 -1 -1 -1 -1 -1
 MicOpt= -1 -1 -1 -1 -1 -1 -1 -1 -1 -1 -1 -1 -1 -1 -1 -1 -1 -1 -1 -1
 MicOpt= -1 -1 -1 -1 -1 -1 -1 -1 -1 -1 -1 -1
 NAtoms=     92 NQM=       92 NQMF=       0 NMMI=      0 NMMIF=      0
                NMic=       0 NMicF=      0.
                    Isotopes and Nuclear Properties:
 (Nuclear quadrupole moments (NQMom) in fm**2, nuclear magnetic moments (NMagM)
  in nuclear magnetons)

  Atom         1           2           3           4           5           6           7           8           9          10
 IAtWgt=          32           1          12          12           1          12          12           1          12          12
 AtmWgt=  31.9720718   1.0078250  12.0000000  12.0000000   1.0078250  12.0000000  12.0000000   1.0078250  12.0000000  12.0000000
 NucSpn=           0           1           0           0           1           0           0           1           0           0
 AtZEff=  -0.0000000  -0.0000000  -0.0000000  -0.0000000  -0.0000000  -0.0000000  -0.0000000  -0.0000000  -0.0000000  -0.0000000
 NQMom=    0.0000000   0.0000000   0.0000000   0.0000000   0.0000000   0.0000000   0.0000000   0.0000000   0.0000000   0.0000000
 NMagM=    0.0000000   2.7928460   0.0000000   0.0000000   2.7928460   0.0000000   0.0000000   2.7928460   0.0000000   0.0000000
 AtZNuc=  16.0000000   1.0000000   6.0000000   6.0000000   1.0000000   6.0000000   6.0000000   1.0000000   6.0000000   6.0000000

  Atom        11          12          13          14          15          16          17          18          19          20
 IAtWgt=           1          14           1          12           1          12          12           1          12          12
 AtmWgt=   1.0078250  14.0030740   1.0078250  12.0000000   1.0078250  12.0000000  12.0000000   1.0078250  12.0000000  12.0000000
 NucSpn=           1           2           1           0           1           0           0           1           0           0
 AtZEff=  -0.0000000  -0.0000000  -0.0000000  -0.0000000  -0.0000000  -0.0000000  -0.0000000  -0.0000000  -0.0000000  -0.0000000
 NQMom=    0.0000000   2.0440000   0.0000000   0.0000000   0.0000000   0.0000000   0.0000000   0.0000000   0.0000000   0.0000000
 NMagM=    2.7928460   0.4037610   2.7928460   0.0000000   2.7928460   0.0000000   0.0000000   2.7928460   0.0000000   0.0000000
 AtZNuc=   1.0000000   7.0000000   1.0000000   6.0000000   1.0000000   6.0000000   6.0000000   1.0000000   6.0000000   6.0000000

  Atom        21          22          23          24          25          26          27          28          29          30
 IAtWgt=           1          12          12           1          12           1          14          12           1           1
 AtmWgt=   1.0078250  12.0000000  12.0000000   1.0078250  12.0000000   1.0078250  14.0030740  12.0000000   1.0078250   1.0078250
 NucSpn=           1           0           0           1           0           1           2           0           1           1
 AtZEff=  -0.0000000  -0.0000000  -0.0000000  -0.0000000  -0.0000000  -0.0000000  -0.0000000  -0.0000000  -0.0000000  -0.0000000
 NQMom=    0.0000000   0.0000000   0.0000000   0.0000000   0.0000000   0.0000000   2.0440000   0.0000000   0.0000000   0.0000000
 NMagM=    2.7928460   0.0000000   0.0000000   2.7928460   0.0000000   2.7928460   0.4037610   0.0000000   2.7928460   2.7928460
 AtZNuc=   1.0000000   6.0000000   6.0000000   1.0000000   6.0000000   1.0000000   7.0000000   6.0000000   1.0000000   1.0000000

  Atom        31          32          33          34          35          36          37          38          39          40
 IAtWgt=          12          12          12          12           1           1          12          14           1          12
 AtmWgt=  12.0000000  12.0000000  12.0000000  12.0000000   1.0078250   1.0078250  12.0000000  14.0030740   1.0078250  12.0000000
 NucSpn=           0           0           0           0           1           1           0           2           1           0
 AtZEff=  -0.0000000  -0.0000000  -0.0000000  -0.0000000  -0.0000000  -0.0000000  -0.0000000  -0.0000000  -0.0000000  -0.0000000
 NQMom=    0.0000000   0.0000000   0.0000000   0.0000000   0.0000000   0.0000000   0.0000000   2.0440000   0.0000000   0.0000000
 NMagM=    0.0000000   0.0000000   0.0000000   0.0000000   2.7928460   2.7928460   0.0000000   0.4037610   2.7928460   0.0000000
 AtZNuc=   6.0000000   6.0000000   6.0000000   6.0000000   1.0000000   1.0000000   6.0000000   7.0000000   1.0000000   6.0000000

  Atom        41          42          43          44          45          46          47          48          49          50
 IAtWgt=           1          12           1          12          12          12          12           1          12           1
 AtmWgt=   1.0078250  12.0000000   1.0078250  12.0000000  12.0000000  12.0000000  12.0000000   1.0078250  12.0000000   1.0078250
 NucSpn=           1           0           1           0           0           0           0           1           0           1
 AtZEff=  -0.0000000  -0.0000000  -0.0000000  -0.0000000  -0.0000000  -0.0000000  -0.0000000  -0.0000000  -0.0000000  -0.0000000
 NQMom=    0.0000000   0.0000000   0.0000000   0.0000000   0.0000000   0.0000000   0.0000000   0.0000000   0.0000000   0.0000000
 NMagM=    2.7928460   0.0000000   2.7928460   0.0000000   0.0000000   0.0000000   0.0000000   2.7928460   0.0000000   2.7928460
 AtZNuc=   1.0000000   6.0000000   1.0000000   6.0000000   6.0000000   6.0000000   6.0000000   1.0000000   6.0000000   1.0000000

  Atom        51          52          53          54          55          56          57          58          59          60
 IAtWgt=          12           1          14           1          12           1          12          12          12          12
 AtmWgt=  12.0000000   1.0078250  14.0030740   1.0078250  12.0000000   1.0078250  12.0000000  12.0000000  12.0000000  12.0000000
 NucSpn=           0           1           2           1           0           1           0           0           0           0
 AtZEff=  -0.0000000  -0.0000000  -0.0000000  -0.0000000  -0.0000000  -0.0000000  -0.0000000  -0.0000000  -0.0000000  -0.0000000
 NQMom=    0.0000000   0.0000000   2.0440000   0.0000000   0.0000000   0.0000000   0.0000000   0.0000000   0.0000000   0.0000000
 NMagM=    0.0000000   2.7928460   0.4037610   2.7928460   0.0000000   2.7928460   0.0000000   0.0000000   0.0000000   0.0000000
 AtZNuc=   6.0000000   1.0000000   7.0000000   1.0000000   6.0000000   1.0000000   6.0000000   6.0000000   6.0000000   6.0000000

  Atom        61          62          63          64          65          66          67          68          69          70
 IAtWgt=           1          12           1          14           1          12           1          12          12           1
 AtmWgt=   1.0078250  12.0000000   1.0078250  14.0030740   1.0078250  12.0000000   1.0078250  12.0000000  12.0000000   1.0078250
 NucSpn=           1           0           1           2           1           0           1           0           0           1
 AtZEff=  -0.0000000  -0.0000000  -0.0000000  -0.0000000  -0.0000000  -0.0000000  -0.0000000  -0.0000000  -0.0000000  -0.0000000
 NQMom=    0.0000000   0.0000000   0.0000000   2.0440000   0.0000000   0.0000000   0.0000000   0.0000000   0.0000000   0.0000000
 NMagM=    2.7928460   0.0000000   2.7928460   0.4037610   2.7928460   0.0000000   2.7928460   0.0000000   0.0000000   2.7928460
 AtZNuc=   1.0000000   6.0000000   1.0000000   7.0000000   1.0000000   6.0000000   1.0000000   6.0000000   6.0000000   1.0000000

  Atom        71          72          73          74          75          76          77          78          79          80
 IAtWgt=          12          12           1          12          12           1          12           1          14           1
 AtmWgt=  12.0000000  12.0000000   1.0078250  12.0000000  12.0000000   1.0078250  12.0000000   1.0078250  14.0030740   1.0078250
 NucSpn=           0           0           1           0           0           1           0           1           2           1
 AtZEff=  -0.0000000  -0.0000000  -0.0000000  -0.0000000  -0.0000000  -0.0000000  -0.0000000  -0.0000000  -0.0000000  -0.0000000
 NQMom=    0.0000000   0.0000000   0.0000000   0.0000000   0.0000000   0.0000000   0.0000000   0.0000000   2.0440000   0.0000000
 NMagM=    0.0000000   0.0000000   2.7928460   0.0000000   0.0000000   2.7928460   0.0000000   2.7928460   0.4037610   2.7928460
 AtZNuc=   6.0000000   6.0000000   1.0000000   6.0000000   6.0000000   1.0000000   6.0000000   1.0000000   7.0000000   1.0000000

  Atom        81          82          83          84          85          86          87          88          89          90
 IAtWgt=          12          12           1          12          12           1          12          12           1          32
 AtmWgt=  12.0000000  12.0000000   1.0078250  12.0000000  12.0000000   1.0078250  12.0000000  12.0000000   1.0078250  31.9720718
 NucSpn=           0           0           1           0           0           1           0           0           1           0
 AtZEff=  -0.0000000  -0.0000000  -0.0000000  -0.0000000  -0.0000000  -0.0000000  -0.0000000  -0.0000000  -0.0000000  -0.0000000
 NQMom=    0.0000000   0.0000000   0.0000000   0.0000000   0.0000000   0.0000000   0.0000000   0.0000000   0.0000000   0.0000000
 NMagM=    0.0000000   0.0000000   2.7928460   0.0000000   0.0000000   2.7928460   0.0000000   0.0000000   2.7928460   0.0000000
 AtZNuc=   6.0000000   6.0000000   1.0000000   6.0000000   6.0000000   1.0000000   6.0000000   6.0000000   1.0000000  16.0000000

  Atom        91          92
 IAtWgt=           1           1
 AtmWgt=   1.0078250   1.0078250
 NucSpn=           1           1
 AtZEff=  -0.0000000  -0.0000000
 NQMom=    0.0000000   0.0000000
 NMagM=    2.7928460   2.7928460
 AtZNuc=   1.0000000   1.0000000
 Leave Link  101 at Wed Nov  2 19:27:25 2022, MaxMem=  8053063680 cpu:               9.9 elap:               0.2
 (Enter /ccc/products/gaussian-16-C.01/system/amd64/g16/l103.exe)

 GradGradGradGradGradGradGradGradGradGradGradGradGradGradGradGradGradGrad
 Berny optimization.
 Initialization pass.
 Trust Radius=3.00D-01 FncErr=1.00D-07 GrdErr=1.00D-07 EigMax=2.50D+02 EigMin=1.00D-04
 Number of steps in this run=      2 maximum allowed number of steps=      2.
 GradGradGradGradGradGradGradGradGradGradGradGradGradGradGradGradGradGrad

 Leave Link  103 at Wed Nov  2 19:27:26 2022, MaxMem=  8053063680 cpu:               1.2 elap:               0.0
 (Enter /ccc/products/gaussian-16-C.01/system/amd64/g16/l202.exe)
 Symmetry turned off by external request.
 Stoichiometry    C48H36N6S2(1+,2)
 Framework group  C1[X(C48H36N6S2)]
 Deg. of freedom   270
 Full point group                 C1      NOp   1
                          Input orientation:                          
 ---------------------------------------------------------------------
 Center     Atomic      Atomic             Coordinates (Angstroms)
 Number     Number       Type             X           Y           Z
 ---------------------------------------------------------------------
      1         16           0       -1.550962   -0.181398   -0.698679
      2          1           0       -1.516401   -2.447616   -2.378147
      3          6           0       -1.658567   -0.312719   -2.459322
      4          6           0       -1.614550   -1.580292   -3.022364
      5          1           0       -1.869581    1.780755   -2.885795
      6          6           0       -1.803712    0.784377   -3.304356
      7          6           0       -1.710198   -1.741691   -4.392190
      8          1           0       -1.691430   -2.730320   -4.830940
      9          6           0       -1.879387    0.622020   -4.678273
     10          6           0       -1.816624   -0.643752   -5.243134
     11          1           0       -2.024376    1.489113   -5.312825
     12          7           0       -1.898944   -0.886975   -6.621880
     13          1           0       -0.891616    0.818551   -7.155088
     14          6           0       -1.424757   -0.076708   -7.465116
     15          1           0       -2.628177   -2.073013   -8.729206
     16          6           0       -1.529494   -0.286735   -8.911948
     17          6           0       -2.187296   -1.376038   -9.426404
     18          1           0       -0.451574    1.472354   -9.394816
     19          6           0       -0.964303    0.618153   -9.797086
     20          6           0       -2.269636   -1.550766  -10.791892
     21          1           0       -2.785919   -2.404863  -11.192116
     22          6           0       -1.046162    0.445884  -11.163513
     23          6           0       -1.700478   -0.645792  -11.678115
     24          1           0       -0.609599    1.150191  -11.855549
     25          6           0       -1.795730   -0.868096  -13.107560
     26          1           0       -2.337094   -1.761980  -13.412727
     27          7           0       -1.319874   -0.083395  -13.986977
     28          6           0       -1.291333   -0.349618  -15.323437
     29          1           0       -0.696184   -2.370941  -15.114905
     30          1           0       -1.820980    1.637377  -15.844419
     31          6           0       -0.944936   -1.583711  -15.812713
     32          6           0       -1.562578    0.677420  -16.239685
     33          6           0       -0.912395   -1.784235  -17.160610
     34          6           0       -1.526583    0.476336  -17.586120
     35          1           0       -0.658637   -2.745286  -17.556446
     36          1           0       -1.778450    1.268227  -18.277357
     37          6           0       -1.179198   -0.759061  -18.077536
     38          7           0       -1.130142   -1.043738  -19.412590
     39          1           0       -0.458583    0.818089  -20.054337
     40          6           0       -0.830703   -0.182271  -20.315316
     41          1           0       -1.645335   -2.484676  -21.454621
     42          6           0       -0.928178   -0.478565  -21.731845
     43          1           0       -0.227046    1.477080  -22.315700
     44          6           0       -1.378070   -1.726408  -22.185719
     45          6           0       -0.574870    0.509824  -22.668118
     46          6           0       -1.470314   -1.971985  -23.538070
     47          6           0       -0.667088    0.264339  -24.020541
     48          1           0       -1.818205   -2.939254  -23.890005
     49          6           0       -1.117911   -0.984031  -24.474462
     50          1           0       -0.399014    1.023072  -24.751349
     51          6           0       -1.211680   -1.282066  -25.890937
     52          1           0       -1.581172   -2.282641  -26.152596
     53          7           0       -0.916160   -0.420254  -26.794546
     54          1           0       -0.223596   -2.786046  -27.944275
     55          6           0       -0.864134   -0.726460  -28.133926
     56          1           0       -1.364885    1.295236  -28.651932
     57          6           0       -0.495965   -1.992897  -28.633874
     58          6           0       -1.128435    0.314084  -29.049231
     59          6           0       -0.436673   -2.210769  -29.986986
     60          6           0       -1.097747    0.089180  -30.403303
     61          1           0       -0.135738   -3.174225  -30.385008
     62          6           0       -0.769489   -1.187062  -30.901545
     63          1           0       -1.290733    0.899580  -31.099970
     64          7           0       -0.680111   -1.462338  -32.243970
     65          1           0       -2.423958   -0.492252  -32.765174
     66          6           0       -1.513743   -1.003706  -33.094895
     67          1           0        0.517242   -2.179117  -34.401800
     68          6           0       -1.352604   -1.145621  -34.522613
     69          6           0       -0.237705   -1.775271  -35.066990
     70          1           0       -3.201657   -0.140155  -34.953095
     71          6           0       -2.331878   -0.628507  -35.375287
     72          6           0       -0.113657   -1.878083  -36.431131
     73          1           0        0.754005   -2.368836  -36.855199
     74          6           0       -2.205407   -0.734262  -36.737985
     75          6           0       -1.090917   -1.360035  -37.282189
     76          1           0       -2.959514   -0.338259  -37.408501
     77          6           0       -0.928762   -1.487779  -38.726881
     78          1           0       -0.021961   -2.002660  -39.060038
     79          7           0       -1.779127   -1.013329  -39.542531
     80          1           0       -0.718787   -3.123527  -40.848321
     81          6           0       -1.625065   -1.188943  -40.919471
     82          6           0       -1.053612   -2.310489  -41.483753
     83          1           0       -2.587562    0.662744  -41.328898
     84          6           0       -2.115120   -0.199586  -41.769716
     85          6           0       -0.950340   -2.418300  -42.854560
     86          1           0       -0.517212   -3.309362  -43.278688
     87          6           0       -1.992381   -0.295929  -43.139685
     88          6           0       -1.406476   -1.408829  -43.700082
     89          1           0       -2.365502    0.498731  -43.777568
     90         16           0       -1.224074   -1.612958  -45.440172
     91          1           0       -1.645581    1.142040   -0.630483
     92          1           0       -1.850298   -0.499045  -45.817900
 ---------------------------------------------------------------------
 Rotational constants (GHZ):           0.7026172           0.0035905           0.0035821
 Leave Link  202 at Wed Nov  2 19:27:26 2022, MaxMem=  8053063680 cpu:               0.9 elap:               0.0
 (Enter /ccc/products/gaussian-16-C.01/system/amd64/g16/l301.exe)
 Standard basis: 6-31+G(d) (6D, 7F)
 Ernie: Thresh=  0.10000D-02 Tol=  0.10000D-05 Strict=F.
  1144 basis functions,  1984 primitive gaussians,  1144 cartesian basis functions
   199 alpha electrons      198 beta electrons
       nuclear repulsion energy      5374.8284773365 Hartrees.
 IExCor=20419 DFT=T Ex+Corr=CAM-B3LYP ExCW=0 ScaHFX=  1.000000
 ScaDFX=  1.000000  1.000000  1.000000  0.810000 ScalE2=  1.000000  1.000000
 IRadAn=      5 IRanWt=     -1 IRanGd=            0 ICorTp=0 IEmpDi=  4
 HFx  wShort=  0.000000 wLong=  0.330000 cFull=  0.190000 cShort=  0.000000 cLong=  0.460000
 DFx  wShort=  0.000000 wLong=  0.330000 cFull=  0.190000 cShort=  0.000000 cLong=  0.460000
 NAtoms=   92 NActive=   92 NUniq=   92 SFac= 1.00D+00 NAtFMM=   60 NAOKFM=T Big=T
 Integral buffers will be    131072 words long.
 Raffenetti 2 integral format.
 Two-electron integral symmetry is turned off.
 Leave Link  301 at Wed Nov  2 19:27:26 2022, MaxMem=  8053063680 cpu:               4.0 elap:               0.1
 (Enter /ccc/products/gaussian-16-C.01/system/amd64/g16/l302.exe)
 NPDir=0 NMtPBC=     1 NCelOv=     1 NCel=       1 NClECP=     1 NCelD=      1
         NCelK=      1 NCelE2=     1 NClLst=     1 CellRange=     0.0.
 One-electron integrals computed using PRISM.
 NBasis=  1144 RedAO= T EigKep=  1.35D-06  NBF=  1144
 NBsUse=  1135 1.00D-06 EigRej=  5.86D-07 NBFU=  1135
 Precomputing XC quadrature grid using
 IXCGrd= 4 IRadAn=           5 IRanWt=          -1 IRanGd=           0 AccXCQ= 0.00D+00.
 Generated NRdTot=       0 NPtTot=           0 NUsed=           0 NTot=          32
 NSgBfM=   682   682   682   682   682 MxSgAt=    92 MxSgA2=    84.
 Leave Link  302 at Wed Nov  2 19:27:28 2022, MaxMem=  8053063680 cpu:             154.3 elap:               2.6
 (Enter /ccc/products/gaussian-16-C.01/system/amd64/g16/l303.exe)
 DipDrv:  MaxL=1.
 Leave Link  303 at Wed Nov  2 19:27:29 2022, MaxMem=  8053063680 cpu:               6.8 elap:               0.2
 (Enter /ccc/products/gaussian-16-C.01/system/amd64/g16/l401.exe)
 ExpMin= 4.05D-02 ExpMax= 2.19D+04 ExpMxC= 3.30D+03 IAcc=3 IRadAn=         5 AccDes= 0.00D+00
 Harris functional with IExCor=20419 and IRadAn=       5 diagonalized for initial guess.
 HarFok:  IExCor=20419 AccDes= 0.00D+00 IRadAn=         5 IDoV= 1 UseB2=F ITyADJ=14
 ICtDFT=  3500011 ScaDFX=  1.000000  1.000000  1.000000  1.000000
 FoFCou: FMM=F IPFlag=           0 FMFlag=      100000 FMFlg1=        2001
         NFxFlg=           0 DoJE=T BraDBF=F KetDBF=T FulRan=T
         wScrn=  0.000000 ICntrl=       500 IOpCl=  0 I1Cent=   200000004 NGrid=           0
         NMat0=    1 NMatS0=      1 NMatT0=    0 NMatD0=    1 NMtDS0=    0 NMtDT0=    0
 Symmetry not used in FoFCou.
 Harris En= -2875.23717418870    
 JPrj=0 DoOrth=F DoCkMO=F.
 Initial guess <Sx>= 0.0000 <Sy>= 0.0000 <Sz>= 0.5000 <S**2>= 0.7500 S= 0.5000
 Leave Link  401 at Wed Nov  2 19:27:33 2022, MaxMem=  8053063680 cpu:             267.9 elap:               4.5
 (Enter /ccc/products/gaussian-16-C.01/system/amd64/g16/l502.exe)
 Two-electron integral symmetry not used.
 UHF open shell SCF:
 Using DIIS extrapolation, IDIIS=  1040.
 NGot=  8053063680 LenX=  8050366898 LenY=  8049057018
 Requested convergence on RMS density matrix=1.00D-08 within 800 cycles.
 Requested convergence on MAX density matrix=1.00D-06.
 Requested convergence on             energy=1.00D-06.
 No special actions if energy rises.
 Fock matrices will be formed incrementally for  20 cycles.

 Cycle   1  Pass 1  IDiag  1:
 FoFJK:  IHMeth= 1 ICntrl=       0 DoSepK=T KAlg= 0 I1Cent=           0 FoldK=F
 IRaf=         1 NMat=       1 IRICut=       1 DoRegI=T DoRafI=F ISym2E= 0 IDoP0=0 IntGTp=1.
 FoFCou: FMM=T IPFlag=           0 FMFlag=      100000 FMFlg1=        2001
         NFxFlg=           0 DoJE=T BraDBF=F KetDBF=F FulRan=T
         wScrn=  0.000000 ICntrl=       500 IOpCl=  0 I1Cent=           0 NGrid=           0
         NMat0=    1 NMatS0=      1 NMatT0=    0 NMatD0=    1 NMtDS0=    0 NMtDT0=    0
 Symmetry not used in FoFCou.
 FMM levels:  10  Number of levels for PrismC:   9
 E= -2973.44360518083    
 DIIS: error= 6.28D-02 at cycle   1 NSaved=   1.
 NSaved= 1 IEnMin= 1 EnMin= -2973.44360518083     IErMin= 1 ErrMin= 6.28D-02
 ErrMax= 6.28D-02  0.00D+00 EMaxC= 1.00D-01 BMatC= 8.08D+00 BMatP= 8.08D+00
 IDIUse=3 WtCom= 3.72D-01 WtEn= 6.28D-01
 Coeff-Com:  0.100D+01
 Coeff-En:   0.100D+01
 Coeff:      0.100D+01
 Gap=     0.423 Goal=   None    Shift=    0.000
 Gap=    -0.039 Goal=   None    Shift=    0.000
 GapD=   -0.039 DampG=0.250 DampE=0.500 DampFc=0.2500 IDamp=-1.
 Damping current iteration by 2.50D-01
 RMSDP=2.45D-02 MaxDP=3.03D+00              OVMax= 4.63D-01

 Cycle   2  Pass 1  IDiag  1:
 RMSU=  5.11D-03    CP:  9.35D-01
 E= -2973.69203279134     Delta-E=       -0.248427610510 Rises=F Damp=T
 DIIS: error= 4.33D-02 at cycle   2 NSaved=   2.
 NSaved= 2 IEnMin= 2 EnMin= -2973.69203279134     IErMin= 2 ErrMin= 4.33D-02
 ErrMax= 4.33D-02  0.00D+00 EMaxC= 1.00D-01 BMatC= 3.97D+00 BMatP= 8.08D+00
 IDIUse=3 WtCom= 5.67D-01 WtEn= 4.33D-01
 Coeff-Com: -0.186D+01 0.286D+01
 Coeff-En:   0.000D+00 0.100D+01
 Coeff:     -0.106D+01 0.206D+01
 Gap=     0.331 Goal=   None    Shift=    0.000
 Gap=     0.026 Goal=   None    Shift=    0.000
 RMSDP=1.82D-02 MaxDP=3.49D+00 DE=-2.48D-01 OVMax= 4.94D-01

 Cycle   3  Pass 1  IDiag  1:
 RMSU=  9.30D-03    CP:  6.46D-01  1.76D+00
 E= -2974.16109144446     Delta-E=       -0.469058653118 Rises=F Damp=F
 DIIS: error= 2.27D-03 at cycle   3 NSaved=   3.
 NSaved= 3 IEnMin= 3 EnMin= -2974.16109144446     IErMin= 3 ErrMin= 2.27D-03
 ErrMax= 2.27D-03  0.00D+00 EMaxC= 1.00D-01 BMatC= 1.05D-01 BMatP= 3.97D+00
 IDIUse=3 WtCom= 9.77D-01 WtEn= 2.27D-02
 Coeff-Com: -0.416D+00 0.601D+00 0.815D+00
 Coeff-En:   0.000D+00 0.000D+00 0.100D+01
 Coeff:     -0.406D+00 0.587D+00 0.819D+00
 Gap=     0.218 Goal=   None    Shift=    0.000
 Gap=     0.011 Goal=   None    Shift=    0.000
 RMSDP=5.05D-03 MaxDP=1.08D+00 DE=-4.69D-01 OVMax= 2.78D-01

 Cycle   4  Pass 1  IDiag  1:
 RMSU=  4.75D-03    CP:  6.22D-01  1.57D+00  9.25D-01
 E= -2974.16623052025     Delta-E=       -0.005139075791 Rises=F Damp=F
 DIIS: error= 2.00D-03 at cycle   4 NSaved=   4.
 NSaved= 4 IEnMin= 4 EnMin= -2974.16623052025     IErMin= 4 ErrMin= 2.00D-03
 ErrMax= 2.00D-03  0.00D+00 EMaxC= 1.00D-01 BMatC= 7.76D-02 BMatP= 1.05D-01
 IDIUse=3 WtCom= 9.80D-01 WtEn= 2.00D-02
 Coeff-Com: -0.163D+00 0.226D+00 0.474D+00 0.463D+00
 Coeff-En:   0.000D+00 0.000D+00 0.452D+00 0.548D+00
 Coeff:     -0.159D+00 0.222D+00 0.473D+00 0.464D+00
 Gap=     0.175 Goal=   None    Shift=    0.000
 Gap=     0.025 Goal=   None    Shift=    0.000
 RMSDP=2.34D-03 MaxDP=3.58D-01 DE=-5.14D-03 OVMax= 2.05D-01

 Cycle   5  Pass 1  IDiag  1:
 RMSU=  1.24D-03    CP:  6.17D-01  1.67D+00  9.72D-01  6.10D-01
 E= -2974.19029253231     Delta-E=       -0.024062012060 Rises=F Damp=F
 DIIS: error= 8.40D-04 at cycle   5 NSaved=   5.
 NSaved= 5 IEnMin= 5 EnMin= -2974.19029253231     IErMin= 5 ErrMin= 8.40D-04
 ErrMax= 8.40D-04  0.00D+00 EMaxC= 1.00D-01 BMatC= 4.10D-03 BMatP= 7.76D-02
 IDIUse=3 WtCom= 9.92D-01 WtEn= 8.40D-03
 Coeff-Com: -0.461D-01 0.633D-01 0.200D+00 0.252D+00 0.530D+00
 Coeff-En:   0.000D+00 0.000D+00 0.000D+00 0.000D+00 0.100D+01
 Coeff:     -0.457D-01 0.628D-01 0.199D+00 0.250D+00 0.534D+00
 Gap=     0.169 Goal=   None    Shift=    0.000
 Gap=     0.027 Goal=   None    Shift=    0.000
 RMSDP=8.81D-04 MaxDP=1.66D-01 DE=-2.41D-02 OVMax= 1.76D-02

 Cycle   6  Pass 1  IDiag  1:
 RMSU=  5.44D-04    CP:  6.15D-01  1.61D+00  1.00D+00  7.14D-01  1.17D+00
 E= -2974.19194000322     Delta-E=       -0.001647470912 Rises=F Damp=F
 DIIS: error= 3.22D-04 at cycle   6 NSaved=   6.
 NSaved= 6 IEnMin= 6 EnMin= -2974.19194000322     IErMin= 6 ErrMin= 3.22D-04
 ErrMax= 3.22D-04  0.00D+00 EMaxC= 1.00D-01 BMatC= 6.23D-04 BMatP= 4.10D-03
 IDIUse=3 WtCom= 9.97D-01 WtEn= 3.22D-03
 Coeff-Com:  0.401D-01-0.553D-01-0.567D-01 0.103D-02 0.143D+00 0.928D+00
 Coeff-En:   0.000D+00 0.000D+00 0.000D+00 0.000D+00 0.000D+00 0.100D+01
 Coeff:      0.400D-01-0.551D-01-0.566D-01 0.102D-02 0.142D+00 0.928D+00
 Gap=     0.166 Goal=   None    Shift=    0.000
 Gap=     0.031 Goal=   None    Shift=    0.000
 RMSDP=8.62D-04 MaxDP=1.52D-01 DE=-1.65D-03 OVMax= 6.63D-02

 Cycle   7  Pass 1  IDiag  1:
 RMSU=  3.61D-04    CP:  6.14D-01  1.55D+00  1.02D+00  8.02D-01  1.50D+00
                    CP:  1.70D+00
 E= -2974.19296313314     Delta-E=       -0.001023129920 Rises=F Damp=F
 DIIS: error= 2.69D-04 at cycle   7 NSaved=   7.
 NSaved= 7 IEnMin= 7 EnMin= -2974.19296313314     IErMin= 7 ErrMin= 2.69D-04
 ErrMax= 2.69D-04  0.00D+00 EMaxC= 1.00D-01 BMatC= 2.98D-04 BMatP= 6.23D-04
 IDIUse=3 WtCom= 9.97D-01 WtEn= 2.69D-03
 Coeff-Com:  0.222D-01-0.303D-01-0.563D-01-0.283D-01-0.129D+00 0.342D+00
 Coeff-Com:  0.879D+00
 Coeff-En:   0.000D+00 0.000D+00 0.000D+00 0.000D+00 0.000D+00 0.000D+00
 Coeff-En:   0.100D+01
 Coeff:      0.222D-01-0.302D-01-0.561D-01-0.282D-01-0.129D+00 0.341D+00
 Coeff:      0.880D+00
 Gap=     0.162 Goal=   None    Shift=    0.000
 Gap=     0.034 Goal=   None    Shift=    0.000
 RMSDP=7.24D-04 MaxDP=1.39D-01 DE=-1.02D-03 OVMax= 4.82D-02

 Cycle   8  Pass 1  IDiag  1:
 RMSU=  1.65D-04    CP:  6.14D-01  1.52D+00  1.03D+00  8.88D-01  1.76D+00
                    CP:  2.38D+00  1.57D+00
 E= -2974.19355420888     Delta-E=       -0.000591075743 Rises=F Damp=F
 DIIS: error= 2.21D-04 at cycle   8 NSaved=   8.
 NSaved= 8 IEnMin= 8 EnMin= -2974.19355420888     IErMin= 8 ErrMin= 2.21D-04
 ErrMax= 2.21D-04  0.00D+00 EMaxC= 1.00D-01 BMatC= 1.24D-04 BMatP= 2.98D-04
 IDIUse=3 WtCom= 9.98D-01 WtEn= 2.21D-03
 Coeff-Com: -0.968D-02 0.135D-01 0.820D-02 0.923D-02-0.135D+00-0.200D+00
 Coeff-Com:  0.253D+00 0.106D+01
 Coeff-En:   0.000D+00 0.000D+00 0.000D+00 0.000D+00 0.000D+00 0.000D+00
 Coeff-En:   0.000D+00 0.100D+01
 Coeff:     -0.966D-02 0.135D-01 0.818D-02 0.921D-02-0.135D+00-0.200D+00
 Coeff:      0.252D+00 0.106D+01
 Gap=     0.158 Goal=   None    Shift=    0.000
 Gap=     0.038 Goal=   None    Shift=    0.000
 RMSDP=6.79D-04 MaxDP=1.30D-01 DE=-5.91D-04 OVMax= 5.20D-02

 Cycle   9  Pass 1  IDiag  1:
 RMSU=  1.24D-04    CP:  6.14D-01  1.49D+00  1.04D+00  9.60D-01  1.98D+00
                    CP:  3.00D+00  2.18D+00  2.08D+00
 E= -2974.19396782047     Delta-E=       -0.000413611582 Rises=F Damp=F
 DIIS: error= 1.35D-04 at cycle   9 NSaved=   9.
 NSaved= 9 IEnMin= 9 EnMin= -2974.19396782047     IErMin= 9 ErrMin= 1.35D-04
 ErrMax= 1.35D-04  0.00D+00 EMaxC= 1.00D-01 BMatC= 6.92D-05 BMatP= 1.24D-04
 IDIUse=3 WtCom= 9.99D-01 WtEn= 1.35D-03
 Coeff-Com: -0.138D-01 0.190D-01 0.303D-01 0.278D-01-0.263D-01-0.219D+00
 Coeff-Com: -0.290D+00 0.616D+00 0.855D+00
 Coeff-En:   0.000D+00 0.000D+00 0.000D+00 0.000D+00 0.000D+00 0.000D+00
 Coeff-En:   0.000D+00 0.000D+00 0.100D+01
 Coeff:     -0.138D-01 0.190D-01 0.302D-01 0.277D-01-0.263D-01-0.218D+00
 Coeff:     -0.289D+00 0.615D+00 0.855D+00
 Gap=     0.156 Goal=   None    Shift=    0.000
 Gap=     0.040 Goal=   None    Shift=    0.000
 RMSDP=4.79D-04 MaxDP=9.09D-02 DE=-4.14D-04 OVMax= 3.67D-02

 Cycle  10  Pass 1  IDiag  1:
 RMSU=  2.04D-04    CP:  6.15D-01  1.48D+00  1.04D+00  1.02D+00  2.10D+00
                    CP:  3.00D+00  2.63D+00  3.00D+00  2.58D+00
 E= -2974.19417676841     Delta-E=       -0.000208947944 Rises=F Damp=F
 DIIS: error= 8.80D-05 at cycle  10 NSaved=  10.
 NSaved=10 IEnMin=10 EnMin= -2974.19417676841     IErMin=10 ErrMin= 8.80D-05
 ErrMax= 8.80D-05  0.00D+00 EMaxC= 1.00D-01 BMatC= 2.54D-05 BMatP= 6.92D-05
 IDIUse=1 WtCom= 1.00D+00 WtEn= 0.00D+00
 Coeff-Com:  0.372D-03-0.586D-03 0.355D-02 0.887D-02 0.335D-01 0.240D-01
 Coeff-Com: -0.204D+00-0.151D+00 0.210D+00 0.108D+01
 Coeff:      0.372D-03-0.586D-03 0.355D-02 0.887D-02 0.335D-01 0.240D-01
 Coeff:     -0.204D+00-0.151D+00 0.210D+00 0.108D+01
 Gap=     0.154 Goal=   None    Shift=    0.000
 Gap=     0.042 Goal=   None    Shift=    0.000
 RMSDP=3.23D-04 MaxDP=6.86D-02 DE=-2.09D-04 OVMax= 2.24D-02

 Cycle  11  Pass 1  IDiag  1:
 RMSU=  1.66D-04    CP:  6.15D-01  1.47D+00  1.04D+00  1.05D+00  2.16D+00
                    CP:  3.00D+00  2.94D+00  3.00D+00  3.00D+00  1.54D+00
 E= -2974.19428616329     Delta-E=       -0.000109394881 Rises=F Damp=F
 DIIS: error= 8.52D-05 at cycle  11 NSaved=  11.
 NSaved=11 IEnMin=11 EnMin= -2974.19428616329     IErMin=11 ErrMin= 8.52D-05
 ErrMax= 8.52D-05  0.00D+00 EMaxC= 1.00D-01 BMatC= 2.42D-05 BMatP= 2.54D-05
 IDIUse=1 WtCom= 1.00D+00 WtEn= 0.00D+00
 Coeff-Com:  0.431D-02-0.597D-02-0.846D-02 0.466D-03 0.213D-01 0.946D-01
 Coeff-Com: -0.133D-01-0.227D+00-0.343D+00 0.652D+00 0.824D+00
 Coeff:      0.431D-02-0.597D-02-0.846D-02 0.466D-03 0.213D-01 0.946D-01
 Coeff:     -0.133D-01-0.227D+00-0.343D+00 0.652D+00 0.824D+00
 Gap=     0.153 Goal=   None    Shift=    0.000
 Gap=     0.042 Goal=   None    Shift=    0.000
 RMSDP=2.27D-04 MaxDP=4.91D-02 DE=-1.09D-04 OVMax= 1.27D-02

 Cycle  12  Pass 1  IDiag  1:
 RMSU=  7.02D-05    CP:  6.15D-01  1.47D+00  1.04D+00  1.08D+00  2.17D+00
                    CP:  3.00D+00  3.00D+00  3.00D+00  3.00D+00  1.81D+00
                    CP:  1.89D+00
 E= -2974.19434357221     Delta-E=       -0.000057408923 Rises=F Damp=F
 DIIS: error= 6.36D-05 at cycle  12 NSaved=  12.
 NSaved=12 IEnMin=12 EnMin= -2974.19434357221     IErMin=12 ErrMin= 6.36D-05
 ErrMax= 6.36D-05  0.00D+00 EMaxC= 1.00D-01 BMatC= 1.30D-05 BMatP= 2.42D-05
 IDIUse=1 WtCom= 1.00D+00 WtEn= 0.00D+00
 Coeff-Com:  0.613D-04-0.106D-03-0.598D-02 0.402D-04-0.200D-01 0.261D-01
 Coeff-Com:  0.924D-01 0.979D-01-0.441D+00-0.246D+00 0.279D-01 0.147D+01
 Coeff:      0.613D-04-0.106D-03-0.598D-02 0.402D-04-0.200D-01 0.261D-01
 Coeff:      0.924D-01 0.979D-01-0.441D+00-0.246D+00 0.279D-01 0.147D+01
 Gap=     0.151 Goal=   None    Shift=    0.000
 Gap=     0.043 Goal=   None    Shift=    0.000
 RMSDP=3.31D-04 MaxDP=7.46D-02 DE=-5.74D-05 OVMax= 2.08D-02

 Cycle  13  Pass 1  IDiag  1:
 RMSU=  6.44D-05    CP:  6.15D-01  1.47D+00  1.04D+00  1.12D+00  2.17D+00
                    CP:  3.00D+00  3.00D+00  3.00D+00  3.00D+00  2.12D+00
                    CP:  3.00D+00  2.82D+00
 E= -2974.19440398477     Delta-E=       -0.000060412553 Rises=F Damp=F
 DIIS: error= 6.70D-05 at cycle  13 NSaved=  13.
 NSaved=13 IEnMin=13 EnMin= -2974.19440398477     IErMin=12 ErrMin= 6.36D-05
 ErrMax= 6.70D-05  0.00D+00 EMaxC= 1.00D-01 BMatC= 1.14D-05 BMatP= 1.30D-05
 IDIUse=1 WtCom= 1.00D+00 WtEn= 0.00D+00
 Coeff-Com: -0.247D-02 0.338D-02 0.648D-03 0.449D-02-0.220D-01-0.240D-01
 Coeff-Com:  0.433D-01 0.197D+00-0.177D+00-0.283D+00-0.550D+00 0.106D+01
 Coeff-Com:  0.753D+00
 Coeff:     -0.247D-02 0.338D-02 0.648D-03 0.449D-02-0.220D-01-0.240D-01
 Coeff:      0.433D-01 0.197D+00-0.177D+00-0.283D+00-0.550D+00 0.106D+01
 Coeff:      0.753D+00
 Gap=     0.151 Goal=   None    Shift=    0.000
 Gap=     0.043 Goal=   None    Shift=    0.000
 RMSDP=1.98D-04 MaxDP=4.32D-02 DE=-6.04D-05 OVMax= 1.09D-02

 Cycle  14  Pass 1  IDiag  1:
 RMSU=  1.11D-04    CP:  6.15D-01  1.47D+00  1.03D+00  1.15D+00  2.15D+00
                    CP:  3.00D+00  3.00D+00  3.00D+00  3.00D+00  2.23D+00
                    CP:  3.00D+00  3.00D+00  2.47D+00
 E= -2974.19443089645     Delta-E=       -0.000026911679 Rises=F Damp=F
 DIIS: error= 4.84D-05 at cycle  14 NSaved=  14.
 NSaved=14 IEnMin=14 EnMin= -2974.19443089645     IErMin=14 ErrMin= 4.84D-05
 ErrMax= 4.84D-05  0.00D+00 EMaxC= 1.00D-01 BMatC= 6.16D-06 BMatP= 1.14D-05
 IDIUse=1 WtCom= 1.00D+00 WtEn= 0.00D+00
 Coeff-Com: -0.204D-02 0.279D-02 0.439D-02 0.672D-02 0.398D-02-0.372D-01
 Coeff-Com: -0.646D-01 0.751D-01 0.101D+00 0.195D+00-0.490D+00-0.151D+00
 Coeff-Com: -0.349D-01 0.139D+01
 Coeff:     -0.204D-02 0.279D-02 0.439D-02 0.672D-02 0.398D-02-0.372D-01
 Coeff:     -0.646D-01 0.751D-01 0.101D+00 0.195D+00-0.490D+00-0.151D+00
 Coeff:     -0.349D-01 0.139D+01
 Gap=     0.150 Goal=   None    Shift=    0.000
 Gap=     0.042 Goal=   None    Shift=    0.000
 RMSDP=2.52D-04 MaxDP=5.46D-02 DE=-2.69D-05 OVMax= 1.49D-02

 Cycle  15  Pass 1  IDiag  1:
 RMSU=  1.08D-04    CP:  6.14D-01  1.47D+00  1.03D+00  1.18D+00  2.12D+00
                    CP:  3.00D+00  3.00D+00  3.00D+00  3.00D+00  2.36D+00
                    CP:  3.00D+00  3.00D+00  3.00D+00  2.21D+00
 E= -2974.19445761882     Delta-E=       -0.000026722370 Rises=F Damp=F
 DIIS: error= 4.88D-05 at cycle  15 NSaved=  15.
 NSaved=15 IEnMin=15 EnMin= -2974.19445761882     IErMin=14 ErrMin= 4.84D-05
 ErrMax= 4.88D-05  0.00D+00 EMaxC= 1.00D-01 BMatC= 5.76D-06 BMatP= 6.16D-06
 IDIUse=1 WtCom= 1.00D+00 WtEn= 0.00D+00
 Coeff-Com: -0.358D-03 0.475D-03 0.116D-02 0.433D-02 0.998D-02-0.773D-02
 Coeff-Com: -0.462D-01-0.152D-02 0.148D-01 0.277D+00-0.140D+00-0.206D+00
 Coeff-Com: -0.642D+00 0.915D+00 0.821D+00
 Coeff:     -0.358D-03 0.475D-03 0.116D-02 0.433D-02 0.998D-02-0.773D-02
 Coeff:     -0.462D-01-0.152D-02 0.148D-01 0.277D+00-0.140D+00-0.206D+00
 Coeff:     -0.642D+00 0.915D+00 0.821D+00
 Gap=     0.149 Goal=   None    Shift=    0.000
 Gap=     0.042 Goal=   None    Shift=    0.000
 RMSDP=1.49D-04 MaxDP=3.08D-02 DE=-2.67D-05 OVMax= 8.42D-03

 Cycle  16  Pass 1  IDiag  1:
 RMSU=  2.15D-05    CP:  6.14D-01  1.47D+00  1.02D+00  1.19D+00  2.10D+00
                    CP:  3.00D+00  3.00D+00  3.00D+00  3.00D+00  2.38D+00
                    CP:  3.00D+00  3.00D+00  3.00D+00  2.87D+00  1.82D+00
 E= -2974.19447181454     Delta-E=       -0.000014195724 Rises=F Damp=F
 DIIS: error= 4.24D-05 at cycle  16 NSaved=  16.
 NSaved=16 IEnMin=16 EnMin= -2974.19447181454     IErMin=16 ErrMin= 4.24D-05
 ErrMax= 4.24D-05  0.00D+00 EMaxC= 1.00D-01 BMatC= 4.44D-06 BMatP= 5.76D-06
 IDIUse=1 WtCom= 1.00D+00 WtEn= 0.00D+00
 Coeff-Com:  0.220D-04-0.613D-04-0.136D-02 0.204D-02 0.207D-02 0.105D-01
 Coeff-Com: -0.117D-01 0.122D-01-0.129D+00 0.110D+00 0.309D-01 0.264D+00
 Coeff-Com: -0.574D+00-0.693D-01-0.168D-01 0.137D+01
 Coeff:      0.220D-04-0.613D-04-0.136D-02 0.204D-02 0.207D-02 0.105D-01
 Coeff:     -0.117D-01 0.122D-01-0.129D+00 0.110D+00 0.309D-01 0.264D+00
 Coeff:     -0.574D+00-0.693D-01-0.168D-01 0.137D+01
 Gap=     0.149 Goal=   None    Shift=    0.000
 Gap=     0.042 Goal=   None    Shift=    0.000
 RMSDP=1.94D-04 MaxDP=4.09D-02 DE=-1.42D-05 OVMax= 1.12D-02

 Cycle  17  Pass 1  IDiag  1:
 RMSU=  7.87D-05    CP:  6.14D-01  1.47D+00  1.02D+00  1.22D+00  2.07D+00
                    CP:  3.00D+00  3.00D+00  3.00D+00  3.00D+00  2.44D+00
                    CP:  3.00D+00  3.00D+00  3.00D+00  3.00D+00  2.88D+00
                    CP:  2.18D+00
 E= -2974.19448833808     Delta-E=       -0.000016523540 Rises=F Damp=F
 DIIS: error= 3.73D-05 at cycle  17 NSaved=  17.
 NSaved=17 IEnMin=17 EnMin= -2974.19448833808     IErMin=17 ErrMin= 3.73D-05
 ErrMax= 3.73D-05  0.00D+00 EMaxC= 1.00D-01 BMatC= 3.38D-06 BMatP= 4.44D-06
 IDIUse=1 WtCom= 1.00D+00 WtEn= 0.00D+00
 Coeff-Com: -0.618D-03 0.838D-03-0.809D-03 0.158D-02-0.786D-02 0.609D-02
 Coeff-Com:  0.385D-02 0.656D-01-0.137D+00-0.797D-01-0.985D-01 0.509D+00
 Coeff-Com:  0.520D-01-0.348D+00-0.106D+01 0.368D+00 0.173D+01
 Coeff:     -0.618D-03 0.838D-03-0.809D-03 0.158D-02-0.786D-02 0.609D-02
 Coeff:      0.385D-02 0.656D-01-0.137D+00-0.797D-01-0.985D-01 0.509D+00
 Coeff:      0.520D-01-0.348D+00-0.106D+01 0.368D+00 0.173D+01
 Gap=     0.148 Goal=   None    Shift=    0.000
 Gap=     0.041 Goal=   None    Shift=    0.000
 RMSDP=2.98D-04 MaxDP=6.28D-02 DE=-1.65D-05 OVMax= 1.77D-02

 Cycle  18  Pass 1  IDiag  1:
 RMSU=  1.63D-04    CP:  6.14D-01  1.47D+00  1.01D+00  1.25D+00  2.03D+00
                    CP:  3.00D+00  3.00D+00  3.00D+00  3.00D+00  2.54D+00
                    CP:  3.00D+00  3.00D+00  3.00D+00  3.00D+00  3.00D+00
                    CP:  3.00D+00  2.83D+00
 E= -2974.19451008641     Delta-E=       -0.000021748328 Rises=F Damp=F
 DIIS: error= 2.83D-05 at cycle  18 NSaved=  18.
 NSaved=18 IEnMin=18 EnMin= -2974.19451008641     IErMin=18 ErrMin= 2.83D-05
 ErrMax= 2.83D-05  0.00D+00 EMaxC= 1.00D-01 BMatC= 2.15D-06 BMatP= 3.38D-06
 IDIUse=1 WtCom= 1.00D+00 WtEn= 0.00D+00
 Coeff-Com: -0.926D-03 0.128D-02 0.126D-02 0.240D-02-0.573D-02-0.979D-02
 Coeff-Com: -0.952D-02 0.637D-01 0.236D-02-0.294D-01-0.229D+00 0.133D+00
 Coeff-Com:  0.330D+00 0.286D+00-0.645D+00-0.130D+01 0.103D+01 0.138D+01
 Coeff:     -0.926D-03 0.128D-02 0.126D-02 0.240D-02-0.573D-02-0.979D-02
 Coeff:     -0.952D-02 0.637D-01 0.236D-02-0.294D-01-0.229D+00 0.133D+00
 Coeff:      0.330D+00 0.286D+00-0.645D+00-0.130D+01 0.103D+01 0.138D+01
 Gap=     0.147 Goal=   None    Shift=    0.000
 Gap=     0.041 Goal=   None    Shift=    0.000
 RMSDP=3.05D-04 MaxDP=6.13D-02 DE=-2.17D-05 OVMax= 1.81D-02

 Cycle  19  Pass 1  IDiag  1:
 RMSU=  1.31D-04    CP:  6.14D-01  1.47D+00  1.01D+00  1.29D+00  1.98D+00
                    CP:  3.00D+00  3.00D+00  3.00D+00  3.00D+00  2.61D+00
                    CP:  3.00D+00  3.00D+00  3.00D+00  3.00D+00  3.00D+00
                    CP:  3.00D+00  3.00D+00  2.15D+00
 E= -2974.19452739480     Delta-E=       -0.000017308390 Rises=F Damp=F
 DIIS: error= 2.10D-05 at cycle  19 NSaved=  19.
 NSaved=19 IEnMin=19 EnMin= -2974.19452739480     IErMin=19 ErrMin= 2.10D-05
 ErrMax= 2.10D-05  0.00D+00 EMaxC= 1.00D-01 BMatC= 1.31D-06 BMatP= 2.15D-06
 IDIUse=1 WtCom= 1.00D+00 WtEn= 0.00D+00
 Coeff-Com: -0.631D-03 0.874D-03 0.239D-02 0.257D-02 0.400D-02-0.211D-01
 Coeff-Com: -0.326D-01 0.927D-02 0.124D+00 0.140D+00-0.203D+00-0.368D+00
 Coeff-Com:  0.502D-01 0.901D+00 0.539D+00-0.149D+01-0.102D+01 0.105D+01
 Coeff-Com:  0.132D+01
 Coeff:     -0.631D-03 0.874D-03 0.239D-02 0.257D-02 0.400D-02-0.211D-01
 Coeff:     -0.326D-01 0.927D-02 0.124D+00 0.140D+00-0.203D+00-0.368D+00
 Coeff:      0.502D-01 0.901D+00 0.539D+00-0.149D+01-0.102D+01 0.105D+01
 Coeff:      0.132D+01
 Gap=     0.146 Goal=   None    Shift=    0.000
 Gap=     0.040 Goal=   None    Shift=    0.000
 RMSDP=3.72D-04 MaxDP=7.53D-02 DE=-1.73D-05 OVMax= 2.22D-02

 Cycle  20  Pass 1  IDiag  1:
 RMSU=  8.67D-05    CP:  6.14D-01  1.47D+00  9.98D-01  1.34D+00  1.92D+00
                    CP:  3.00D+00  2.94D+00  3.00D+00  3.00D+00  2.73D+00
                    CP:  3.00D+00  3.00D+00  3.00D+00  3.00D+00  3.00D+00
                    CP:  3.00D+00  3.00D+00  3.00D+00  2.35D+00
 E= -2974.19454033760     Delta-E=       -0.000012942797 Rises=F Damp=F
 DIIS: error= 1.13D-05 at cycle  20 NSaved=  20.
 NSaved=20 IEnMin=20 EnMin= -2974.19454033760     IErMin=20 ErrMin= 1.13D-05
 ErrMax= 1.13D-05  0.00D+00 EMaxC= 1.00D-01 BMatC= 3.39D-07 BMatP= 1.31D-06
 IDIUse=1 WtCom= 1.00D+00 WtEn= 0.00D+00
 Coeff-Com: -0.725D-04 0.938D-04 0.663D-03 0.116D-02 0.434D-02-0.558D-02
 Coeff-Com: -0.122D-01-0.114D-01 0.444D-01 0.959D-01-0.367D-01-0.185D+00
 Coeff-Com: -0.149D+00 0.371D+00 0.465D+00-0.172D+00-0.893D+00-0.605D-01
 Coeff-Com:  0.598D+00 0.945D+00
 Coeff:     -0.725D-04 0.938D-04 0.663D-03 0.116D-02 0.434D-02-0.558D-02
 Coeff:     -0.122D-01-0.114D-01 0.444D-01 0.959D-01-0.367D-01-0.185D+00
 Coeff:     -0.149D+00 0.371D+00 0.465D+00-0.172D+00-0.893D+00-0.605D-01
 Coeff:      0.598D+00 0.945D+00
 Gap=     0.145 Goal=   None    Shift=    0.000
 Gap=     0.040 Goal=   None    Shift=    0.000
 RMSDP=1.46D-04 MaxDP=3.05D-02 DE=-1.29D-05 OVMax= 8.88D-03

 Cycle  21  Pass 1  IDiag  1:
 Restarting incremental Fock formation.
 E= -2974.19454289514     Delta-E=       -0.000002557546 Rises=F Damp=F
 DIIS: error= 5.84D-06 at cycle  21 NSaved=  20.
 NSaved=20 IEnMin=20 EnMin= -2974.19454289514     IErMin=20 ErrMin= 5.84D-06
 ErrMax= 5.84D-06  0.00D+00 EMaxC= 1.00D-01 BMatC= 1.45D-07 BMatP= 3.39D-07
 IDIUse=1 WtCom= 1.00D+00 WtEn= 0.00D+00
 Coeff-Com: -0.651D-05-0.242D-03 0.127D-03 0.459D-03 0.276D-02 0.660D-03
 Coeff-Com: -0.378D-02-0.236D-01 0.286D-02 0.323D-01 0.650D-01-0.949D-01
 Coeff-Com: -0.141D+00-0.168D-01 0.510D+00-0.474D-01-0.455D+00-0.263D+00
 Coeff-Com:  0.518D+00 0.914D+00
 Coeff:     -0.651D-05-0.242D-03 0.127D-03 0.459D-03 0.276D-02 0.660D-03
 Coeff:     -0.378D-02-0.236D-01 0.286D-02 0.323D-01 0.650D-01-0.949D-01
 Coeff:     -0.141D+00-0.168D-01 0.510D+00-0.474D-01-0.455D+00-0.263D+00
 Coeff:      0.518D+00 0.914D+00
 Gap=     0.145 Goal=   None    Shift=    0.000
 Gap=     0.040 Goal=   None    Shift=    0.000
 RMSDP=1.04D-04 MaxDP=2.06D-02 DE=-2.56D-06 OVMax= 6.16D-03

 Cycle  22  Pass 1  IDiag  1:
 RMSU=  1.04D-04    CP:  1.00D+00
 E= -2974.19454366069     Delta-E=       -0.000000765544 Rises=F Damp=F
 DIIS: error= 2.48D-06 at cycle  22 NSaved=  20.
 NSaved=20 IEnMin=20 EnMin= -2974.19454366069     IErMin=20 ErrMin= 2.48D-06
 ErrMax= 2.48D-06  0.00D+00 EMaxC= 1.00D-01 BMatC= 2.36D-08 BMatP= 1.45D-07
 IDIUse=1 WtCom= 1.00D+00 WtEn= 0.00D+00
 Coeff-Com: -0.189D-03-0.116D-03-0.763D-03 0.189D-02 0.138D-02 0.179D-02
 Coeff-Com: -0.183D-01-0.166D-01 0.166D-01 0.677D-01 0.486D-02-0.130D+00
 Coeff-Com: -0.127D+00 0.209D+00 0.233D+00-0.116D+00-0.283D+00-0.869D-01
 Coeff-Com:  0.321D+00 0.922D+00
 Coeff:     -0.189D-03-0.116D-03-0.763D-03 0.189D-02 0.138D-02 0.179D-02
 Coeff:     -0.183D-01-0.166D-01 0.166D-01 0.677D-01 0.486D-02-0.130D+00
 Coeff:     -0.127D+00 0.209D+00 0.233D+00-0.116D+00-0.283D+00-0.869D-01
 Coeff:      0.321D+00 0.922D+00
 Gap=     0.145 Goal=   None    Shift=    0.000
 Gap=     0.040 Goal=   None    Shift=    0.000
 RMSDP=5.87D-06 MaxDP=1.18D-03 DE=-7.66D-07 OVMax= 4.72D-04

 Cycle  23  Pass 1  IDiag  1:
 RMSU=  3.55D-06    CP:  1.00D+00  1.05D+00
 E= -2974.19454370990     Delta-E=       -0.000000049211 Rises=F Damp=F
 DIIS: error= 1.97D-06 at cycle  23 NSaved=  20.
 NSaved=20 IEnMin=20 EnMin= -2974.19454370990     IErMin=20 ErrMin= 1.97D-06
 ErrMax= 1.97D-06  0.00D+00 EMaxC= 1.00D-01 BMatC= 1.47D-08 BMatP= 2.36D-08
 IDIUse=1 WtCom= 1.00D+00 WtEn= 0.00D+00
 Coeff-Com: -0.498D-04-0.357D-03 0.162D-04 0.964D-03 0.189D-02-0.282D-02
 Coeff-Com: -0.779D-02-0.370D-02 0.134D-01 0.221D-01-0.866D-02-0.598D-01
 Coeff-Com: -0.526D-01 0.110D+00 0.862D-01-0.496D-01-0.216D+00-0.130D+00
 Coeff-Com:  0.503D+00 0.794D+00
 Coeff:     -0.498D-04-0.357D-03 0.162D-04 0.964D-03 0.189D-02-0.282D-02
 Coeff:     -0.779D-02-0.370D-02 0.134D-01 0.221D-01-0.866D-02-0.598D-01
 Coeff:     -0.526D-01 0.110D+00 0.862D-01-0.496D-01-0.216D+00-0.130D+00
 Coeff:      0.503D+00 0.794D+00
 Gap=     0.145 Goal=   None    Shift=    0.000
 Gap=     0.040 Goal=   None    Shift=    0.000
 RMSDP=2.27D-05 MaxDP=4.45D-03 DE=-4.92D-08 OVMax= 1.29D-03

 Cycle  24  Pass 1  IDiag  1:
 RMSU=  1.49D-06    CP:  1.00D+00  1.26D+00  8.89D-01
 E= -2974.19454375164     Delta-E=       -0.000000041748 Rises=F Damp=F
 DIIS: error= 9.49D-07 at cycle  24 NSaved=  20.
 NSaved=20 IEnMin=20 EnMin= -2974.19454375164     IErMin=20 ErrMin= 9.49D-07
 ErrMax= 9.49D-07  0.00D+00 EMaxC= 1.00D-01 BMatC= 3.09D-09 BMatP= 1.47D-08
 IDIUse=1 WtCom= 1.00D+00 WtEn= 0.00D+00
 Coeff-Com:  0.228D-04-0.414D-03 0.581D-03 0.965D-03 0.116D-02 0.553D-03
 Coeff-Com: -0.563D-02-0.554D-02 0.450D-02 0.302D-01 0.431D-02-0.676D-01
 Coeff-Com: -0.138D-01 0.670D-01 0.552D-01-0.550D-01-0.150D+00-0.694D-01
 Coeff-Com:  0.276D+00 0.927D+00
 Coeff:      0.228D-04-0.414D-03 0.581D-03 0.965D-03 0.116D-02 0.553D-03
 Coeff:     -0.563D-02-0.554D-02 0.450D-02 0.302D-01 0.431D-02-0.676D-01
 Coeff:     -0.138D-01 0.670D-01 0.552D-01-0.550D-01-0.150D+00-0.694D-01
 Coeff:      0.276D+00 0.927D+00
 Gap=     0.145 Goal=   None    Shift=    0.000
 Gap=     0.040 Goal=   None    Shift=    0.000
 RMSDP=6.37D-06 MaxDP=1.36D-03 DE=-4.17D-08 OVMax= 3.30D-04

 Cycle  25  Pass 1  IDiag  1:
 RMSU=  9.59D-07    CP:  1.00D+00  1.20D+00  1.14D+00  1.31D+00
 E= -2974.19454375243     Delta-E=       -0.000000000786 Rises=F Damp=F
 DIIS: error= 8.95D-07 at cycle  25 NSaved=  20.
 NSaved=20 IEnMin=20 EnMin= -2974.19454375243     IErMin=20 ErrMin= 8.95D-07
 ErrMax= 8.95D-07  0.00D+00 EMaxC= 1.00D-01 BMatC= 2.66D-09 BMatP= 3.09D-09
 IDIUse=1 WtCom= 1.00D+00 WtEn= 0.00D+00
 Coeff-Com: -0.422D-03 0.528D-04 0.409D-03 0.216D-02 0.234D-02-0.377D-02
 Coeff-Com: -0.835D-02-0.162D-02 0.234D-01 0.186D-01-0.393D-01-0.431D-01
 Coeff-Com:  0.223D-01 0.519D-01 0.272D-01-0.636D-01-0.180D+00-0.928D-01
 Coeff-Com:  0.547D+00 0.738D+00
 Coeff:     -0.422D-03 0.528D-04 0.409D-03 0.216D-02 0.234D-02-0.377D-02
 Coeff:     -0.835D-02-0.162D-02 0.234D-01 0.186D-01-0.393D-01-0.431D-01
 Coeff:      0.223D-01 0.519D-01 0.272D-01-0.636D-01-0.180D+00-0.928D-01
 Coeff:      0.547D+00 0.738D+00
 Gap=     0.145 Goal=   None    Shift=    0.000
 Gap=     0.040 Goal=   None    Shift=    0.000
 RMSDP=1.24D-05 MaxDP=2.49D-03 DE=-7.86D-10 OVMax= 7.00D-04

 Cycle  26  Pass 1  IDiag  1:
 RMSU=  6.02D-07    CP:  1.00D+00  1.32D+00  1.02D+00  1.54D+00  7.12D-01
 E= -2974.19454376095     Delta-E=       -0.000000008524 Rises=F Damp=F
 DIIS: error= 4.89D-07 at cycle  26 NSaved=  20.
 NSaved=20 IEnMin=20 EnMin= -2974.19454376095     IErMin=20 ErrMin= 4.89D-07
 ErrMax= 4.89D-07  0.00D+00 EMaxC= 1.00D-01 BMatC= 7.61D-10 BMatP= 2.66D-09
 IDIUse=1 WtCom= 1.00D+00 WtEn= 0.00D+00
 Coeff-Com: -0.283D-03-0.108D-03 0.279D-03 0.134D-02 0.128D-02-0.141D-02
 Coeff-Com: -0.397D-02-0.221D-02 0.109D-01 0.154D-01-0.161D-01-0.240D-01
 Coeff-Com: -0.162D-02 0.505D-01 0.457D-01-0.599D-01-0.205D+00-0.205D+00
 Coeff-Com:  0.348D+00 0.105D+01
 Coeff:     -0.283D-03-0.108D-03 0.279D-03 0.134D-02 0.128D-02-0.141D-02
 Coeff:     -0.397D-02-0.221D-02 0.109D-01 0.154D-01-0.161D-01-0.240D-01
 Coeff:     -0.162D-02 0.505D-01 0.457D-01-0.599D-01-0.205D+00-0.205D+00
 Coeff:      0.348D+00 0.105D+01
 Gap=     0.145 Goal=   None    Shift=    0.000
 Gap=     0.040 Goal=   None    Shift=    0.000
 RMSDP=2.01D-06 MaxDP=4.60D-04 DE=-8.52D-09 OVMax= 9.80D-05

 Cycle  27  Pass 1  IDiag  1:
 RMSU=  3.65D-07    CP:  1.00D+00  1.31D+00  1.17D+00  1.67D+00  1.15D+00
                    CP:  1.23D+00
 E= -2974.19454376247     Delta-E=       -0.000000001515 Rises=F Damp=F
 DIIS: error= 3.21D-07 at cycle  27 NSaved=  20.
 NSaved=20 IEnMin=20 EnMin= -2974.19454376247     IErMin=20 ErrMin= 3.21D-07
 ErrMax= 3.21D-07  0.00D+00 EMaxC= 1.00D-01 BMatC= 3.54D-10 BMatP= 7.61D-10
 IDIUse=1 WtCom= 1.00D+00 WtEn= 0.00D+00
 Coeff-Com: -0.688D-04-0.372D-03 0.442D-03 0.105D-02 0.483D-03-0.259D-02
 Coeff-Com: -0.331D-02 0.374D-02 0.140D-01-0.291D-02-0.180D-01-0.833D-02
 Coeff-Com:  0.191D-01 0.389D-01 0.188D-01-0.747D-01-0.264D+00-0.109D+00
 Coeff-Com:  0.515D+00 0.872D+00
 Coeff:     -0.688D-04-0.372D-03 0.442D-03 0.105D-02 0.483D-03-0.259D-02
 Coeff:     -0.331D-02 0.374D-02 0.140D-01-0.291D-02-0.180D-01-0.833D-02
 Coeff:      0.191D-01 0.389D-01 0.188D-01-0.747D-01-0.264D+00-0.109D+00
 Coeff:      0.515D+00 0.872D+00
 Gap=     0.145 Goal=   None    Shift=    0.000
 Gap=     0.040 Goal=   None    Shift=    0.000
 RMSDP=1.89D-06 MaxDP=3.83D-04 DE=-1.52D-09 OVMax= 1.04D-04

 Cycle  28  Pass 1  IDiag  1:
 RMSU=  1.61D-07    CP:  1.00D+00  1.32D+00  1.21D+00  1.81D+00  1.33D+00
                    CP:  1.38D+00  1.68D+00
 E= -2974.19454376348     Delta-E=       -0.000000001015 Rises=F Damp=F
 DIIS: error= 2.16D-07 at cycle  28 NSaved=  20.
 NSaved=20 IEnMin=20 EnMin= -2974.19454376348     IErMin=20 ErrMin= 2.16D-07
 ErrMax= 2.16D-07  0.00D+00 EMaxC= 1.00D-01 BMatC= 1.25D-10 BMatP= 3.54D-10
 IDIUse=1 WtCom= 1.00D+00 WtEn= 0.00D+00
 Coeff-Com: -0.187D-03-0.115D-03-0.521D-03 0.120D-02 0.196D-02-0.118D-02
 Coeff-Com: -0.771D-02-0.354D-02 0.151D-01 0.597D-02-0.644D-02-0.239D-01
 Coeff-Com: -0.502D-02 0.608D-01 0.710D-01-0.547D-01-0.287D+00-0.235D+00
 Coeff-Com:  0.367D+00 0.110D+01
 Coeff:     -0.187D-03-0.115D-03-0.521D-03 0.120D-02 0.196D-02-0.118D-02
 Coeff:     -0.771D-02-0.354D-02 0.151D-01 0.597D-02-0.644D-02-0.239D-01
 Coeff:     -0.502D-02 0.608D-01 0.710D-01-0.547D-01-0.287D+00-0.235D+00
 Coeff:      0.367D+00 0.110D+01
 Gap=     0.145 Goal=   None    Shift=    0.000
 Gap=     0.040 Goal=   None    Shift=    0.000
 RMSDP=1.22D-06 MaxDP=2.43D-04 DE=-1.01D-09 OVMax= 6.44D-05

 Cycle  29  Pass 1  IDiag  1:
 RMSU=  1.01D-07    CP:  1.00D+00  1.33D+00  1.26D+00  1.91D+00  1.53D+00
                    CP:  1.53D+00  2.38D+00  1.64D+00
 E= -2974.19454376373     Delta-E=       -0.000000000244 Rises=F Damp=F
 DIIS: error= 8.25D-08 at cycle  29 NSaved=  20.
 NSaved=20 IEnMin=20 EnMin= -2974.19454376373     IErMin=20 ErrMin= 8.25D-08
 ErrMax= 8.25D-08  0.00D+00 EMaxC= 1.00D-01 BMatC= 3.18D-11 BMatP= 1.25D-10
 IDIUse=1 WtCom= 1.00D+00 WtEn= 0.00D+00
 Coeff-Com:  0.385D-06-0.451D-03-0.125D-03 0.547D-03 0.160D-02-0.174D-02
 Coeff-Com: -0.434D-02 0.194D-02 0.599D-02 0.246D-02-0.114D-01-0.129D-01
 Coeff-Com:  0.976D-02 0.421D-01 0.654D-01-0.505D-01-0.231D+00-0.131D+00
 Coeff-Com:  0.335D+00 0.978D+00
 Coeff:      0.385D-06-0.451D-03-0.125D-03 0.547D-03 0.160D-02-0.174D-02
 Coeff:     -0.434D-02 0.194D-02 0.599D-02 0.246D-02-0.114D-01-0.129D-01
 Coeff:      0.976D-02 0.421D-01 0.654D-01-0.505D-01-0.231D+00-0.131D+00
 Coeff:      0.335D+00 0.978D+00
 Gap=     0.145 Goal=   None    Shift=    0.000
 Gap=     0.040 Goal=   None    Shift=    0.000
 RMSDP=5.50D-07 MaxDP=1.06D-04 DE=-2.44D-10 OVMax= 2.99D-05

 Cycle  30  Pass 1  IDiag  1:
 RMSU=  9.77D-08    CP:  1.00D+00  1.34D+00  1.27D+00  1.93D+00  1.56D+00
                    CP:  1.60D+00  2.54D+00  2.04D+00  1.21D+00
 E= -2974.19454376386     Delta-E=       -0.000000000131 Rises=F Damp=F
 DIIS: error= 5.49D-08 at cycle  30 NSaved=  20.
 NSaved=20 IEnMin=20 EnMin= -2974.19454376386     IErMin=20 ErrMin= 5.49D-08
 ErrMax= 5.49D-08  0.00D+00 EMaxC= 1.00D-01 BMatC= 1.72D-11 BMatP= 3.18D-11
 IDIUse=1 WtCom= 1.00D+00 WtEn= 0.00D+00
 Coeff-Com:  0.106D-03-0.296D-03-0.320D-03 0.528D-03 0.154D-02 0.376D-03
 Coeff-Com: -0.347D-02 0.738D-04 0.218D-02 0.278D-02-0.197D-02-0.125D-01
 Coeff-Com: -0.372D-02 0.367D-01 0.651D-01-0.387D-01-0.146D+00-0.166D+00
 Coeff-Com:  0.446D+00 0.818D+00
 Coeff:      0.106D-03-0.296D-03-0.320D-03 0.528D-03 0.154D-02 0.376D-03
 Coeff:     -0.347D-02 0.738D-04 0.218D-02 0.278D-02-0.197D-02-0.125D-01
 Coeff:     -0.372D-02 0.367D-01 0.651D-01-0.387D-01-0.146D+00-0.166D+00
 Coeff:      0.446D+00 0.818D+00
 Gap=     0.145 Goal=   None    Shift=    0.000
 Gap=     0.040 Goal=   None    Shift=    0.000
 RMSDP=5.99D-07 MaxDP=1.21D-04 DE=-1.31D-10 OVMax= 3.34D-05

 Cycle  31  Pass 1  IDiag  1:
 RMSU=  4.04D-08    CP:  1.00D+00  1.33D+00  1.28D+00  1.93D+00  1.58D+00
                    CP:  1.61D+00  2.58D+00  2.11D+00  1.41D+00  1.37D+00
 E= -2974.19454376392     Delta-E=       -0.000000000065 Rises=F Damp=F
 DIIS: error= 3.45D-08 at cycle  31 NSaved=  20.
 NSaved=20 IEnMin=20 EnMin= -2974.19454376392     IErMin=20 ErrMin= 3.45D-08
 ErrMax= 3.45D-08  0.00D+00 EMaxC= 1.00D-01 BMatC= 5.36D-12 BMatP= 1.72D-11
 IDIUse=1 WtCom= 1.00D+00 WtEn= 0.00D+00
 Coeff-Com:  0.807D-04 0.535D-04-0.559D-03 0.346D-03 0.149D-02-0.102D-02
 Coeff-Com: -0.177D-02-0.402D-03 0.397D-02 0.359D-02-0.754D-02-0.141D-01
 Coeff-Com: -0.655D-02 0.457D-01 0.492D-01-0.170D-01-0.170D+00-0.163D+00
 Coeff-Com:  0.329D+00 0.948D+00
 Coeff:      0.807D-04 0.535D-04-0.559D-03 0.346D-03 0.149D-02-0.102D-02
 Coeff:     -0.177D-02-0.402D-03 0.397D-02 0.359D-02-0.754D-02-0.141D-01
 Coeff:     -0.655D-02 0.457D-01 0.492D-01-0.170D-01-0.170D+00-0.163D+00
 Coeff:      0.329D+00 0.948D+00
 Gap=     0.145 Goal=   None    Shift=    0.000
 Gap=     0.040 Goal=   None    Shift=    0.000
 RMSDP=1.22D-07 MaxDP=2.49D-05 DE=-6.55D-11 OVMax= 7.01D-06

 Cycle  32  Pass 1  IDiag  1:
 RMSU=  2.77D-08    CP:  1.00D+00  1.33D+00  1.28D+00  1.94D+00  1.59D+00
                    CP:  1.62D+00  2.60D+00  2.16D+00  1.46D+00  1.58D+00
                    CP:  1.31D+00
 E= -2974.19454376390     Delta-E=        0.000000000022 Rises=F Damp=F
 DIIS: error= 2.10D-08 at cycle  32 NSaved=  20.
 NSaved=20 IEnMin=19 EnMin= -2974.19454376392     IErMin=20 ErrMin= 2.10D-08
 ErrMax= 2.10D-08  0.00D+00 EMaxC= 1.00D-01 BMatC= 2.48D-12 BMatP= 5.36D-12
 IDIUse=1 WtCom= 1.00D+00 WtEn= 0.00D+00
 Coeff-Com:  0.903D-04-0.281D-03-0.193D-03 0.385D-03 0.296D-03-0.754D-03
 Coeff-Com: -0.689D-03 0.106D-02 0.228D-02-0.390D-03-0.643D-02-0.132D-01
 Coeff-Com:  0.557D-02 0.358D-01 0.365D-01-0.402D-01-0.228D+00-0.127D+00
 Coeff-Com:  0.455D+00 0.880D+00
 Coeff:      0.903D-04-0.281D-03-0.193D-03 0.385D-03 0.296D-03-0.754D-03
 Coeff:     -0.689D-03 0.106D-02 0.228D-02-0.390D-03-0.643D-02-0.132D-01
 Coeff:      0.557D-02 0.358D-01 0.365D-01-0.402D-01-0.228D+00-0.127D+00
 Coeff:      0.455D+00 0.880D+00
 Gap=     0.145 Goal=   None    Shift=    0.000
 Gap=     0.040 Goal=   None    Shift=    0.000
 RMSDP=2.79D-07 MaxDP=5.58D-05 DE= 2.18D-11 OVMax= 1.59D-05

 Cycle  33  Pass 1  IDiag  1:
 RMSU=  1.51D-08    CP:  1.00D+00  1.34D+00  1.28D+00  1.95D+00  1.59D+00
                    CP:  1.64D+00  2.59D+00  2.17D+00  1.46D+00  1.72D+00
                    CP:  1.60D+00  1.62D+00
 E= -2974.19454376388     Delta-E=        0.000000000018 Rises=F Damp=F
 DIIS: error= 1.74D-08 at cycle  33 NSaved=  20.
 NSaved=20 IEnMin=18 EnMin= -2974.19454376392     IErMin=20 ErrMin= 1.74D-08
 ErrMax= 1.74D-08  0.00D+00 EMaxC= 1.00D-01 BMatC= 1.75D-12 BMatP= 2.48D-12
 IDIUse=1 WtCom= 1.00D+00 WtEn= 0.00D+00
 Coeff-Com:  0.135D-03-0.346D-03-0.237D-03 0.792D-03 0.306D-03-0.225D-03
 Coeff-Com: -0.175D-02-0.475D-03 0.393D-02 0.596D-02-0.388D-02-0.224D-01
 Coeff-Com: -0.145D-01 0.430D-01 0.679D-01-0.441D-01-0.275D+00-0.146D+00
 Coeff-Com:  0.452D+00 0.934D+00
 Coeff:      0.135D-03-0.346D-03-0.237D-03 0.792D-03 0.306D-03-0.225D-03
 Coeff:     -0.175D-02-0.475D-03 0.393D-02 0.596D-02-0.388D-02-0.224D-01
 Coeff:     -0.145D-01 0.430D-01 0.679D-01-0.441D-01-0.275D+00-0.146D+00
 Coeff:      0.452D+00 0.934D+00
 Gap=     0.145 Goal=   None    Shift=    0.000
 Gap=     0.040 Goal=   None    Shift=    0.000
 RMSDP=2.36D-07 MaxDP=4.79D-05 DE= 1.82D-11 OVMax= 1.34D-05

 Cycle  34  Pass 1  IDiag  1:
 RMSU=  1.10D-08    CP:  1.00D+00  1.33D+00  1.28D+00  1.94D+00  1.60D+00
                    CP:  1.63D+00  2.61D+00  2.17D+00  1.49D+00  1.70D+00
                    CP:  1.86D+00  2.20D+00  1.49D+00
 E= -2974.19454376397     Delta-E=       -0.000000000084 Rises=F Damp=F
 DIIS: error= 8.15D-09 at cycle  34 NSaved=  20.
 NSaved=20 IEnMin=20 EnMin= -2974.19454376397     IErMin=20 ErrMin= 8.15D-09
 ErrMax= 8.15D-09  0.00D+00 EMaxC= 1.00D-01 BMatC= 4.89D-13 BMatP= 1.75D-12
 IDIUse=1 WtCom= 1.00D+00 WtEn= 0.00D+00
 Coeff-Com: -0.230D-03 0.276D-04 0.285D-03-0.203D-04 0.143D-04-0.569D-03
 Coeff-Com: -0.116D-03 0.104D-02 0.249D-02 0.153D-03-0.801D-02-0.134D-01
 Coeff-Com:  0.628D-02 0.361D-01 0.428D-01-0.938D-01-0.180D+00-0.119D-01
 Coeff-Com:  0.390D+00 0.829D+00
 Coeff:     -0.230D-03 0.276D-04 0.285D-03-0.203D-04 0.143D-04-0.569D-03
 Coeff:     -0.116D-03 0.104D-02 0.249D-02 0.153D-03-0.801D-02-0.134D-01
 Coeff:      0.628D-02 0.361D-01 0.428D-01-0.938D-01-0.180D+00-0.119D-01
 Coeff:      0.390D+00 0.829D+00
 Gap=     0.145 Goal=   None    Shift=    0.000
 Gap=     0.040 Goal=   None    Shift=    0.000
 RMSDP=1.77D-07 MaxDP=3.54D-05 DE=-8.37D-11 OVMax= 9.58D-06

 Cycle  35  Pass 1  IDiag  1:
 RMSU=  6.89D-09    CP:  1.00D+00  1.34D+00  1.28D+00  1.95D+00  1.60D+00
                    CP:  1.64D+00  2.62D+00  2.16D+00  1.49D+00  1.66D+00
                    CP:  1.85D+00  2.61D+00  1.91D+00  1.13D+00
 E= -2974.19454376391     Delta-E=        0.000000000062 Rises=F Damp=F
 DIIS: error= 8.55D-09 at cycle  35 NSaved=  20.
 NSaved=20 IEnMin=19 EnMin= -2974.19454376397     IErMin=19 ErrMin= 8.15D-09
 ErrMax= 8.55D-09  0.00D+00 EMaxC= 1.00D-01 BMatC= 4.16D-13 BMatP= 4.89D-13
 IDIUse=1 WtCom= 1.00D+00 WtEn= 0.00D+00
 Coeff-Com:  0.568D-04-0.829D-04-0.588D-05 0.227D-03-0.464D-04-0.358D-03
 Coeff-Com: -0.879D-03 0.123D-02 0.364D-02 0.370D-02-0.963D-02-0.158D-01
 Coeff-Com: -0.141D-02 0.757D-01 0.497D-01-0.890D-01-0.244D+00-0.162D+00
 Coeff-Com:  0.543D+00 0.846D+00
 Coeff:      0.568D-04-0.829D-04-0.588D-05 0.227D-03-0.464D-04-0.358D-03
 Coeff:     -0.879D-03 0.123D-02 0.364D-02 0.370D-02-0.963D-02-0.158D-01
 Coeff:     -0.141D-02 0.757D-01 0.497D-01-0.890D-01-0.244D+00-0.162D+00
 Coeff:      0.543D+00 0.846D+00
 Gap=     0.145 Goal=   None    Shift=    0.000
 Gap=     0.040 Goal=   None    Shift=    0.000
 RMSDP=1.09D-07 MaxDP=2.20D-05 DE= 6.18D-11 OVMax= 6.35D-06

 Cycle  36  Pass 1  IDiag  1:
 RMSU=  6.77D-09    CP:  1.00D+00  1.34D+00  1.29D+00  1.95D+00  1.61D+00
                    CP:  1.64D+00  2.64D+00  2.16D+00  1.50D+00  1.61D+00
                    CP:  1.86D+00  2.92D+00  2.32D+00  1.69D+00  1.65D+00
 E= -2974.19454376388     Delta-E=        0.000000000022 Rises=F Damp=F
 DIIS: error= 4.27D-09 at cycle  36 NSaved=  20.
 NSaved=20 IEnMin=18 EnMin= -2974.19454376397     IErMin=20 ErrMin= 4.27D-09
 ErrMax= 4.27D-09  0.00D+00 EMaxC= 1.00D-01 BMatC= 7.51D-14 BMatP= 4.16D-13
 IDIUse=1 WtCom= 1.00D+00 WtEn= 0.00D+00
 Coeff-Com: -0.881D-04-0.417D-04 0.113D-03 0.125D-03-0.522D-04-0.843D-03
 Coeff-Com: -0.191D-03 0.105D-02 0.429D-02 0.133D-03-0.601D-02-0.112D-01
 Coeff-Com:  0.828D-03 0.394D-01 0.615D-01-0.472D-01-0.253D+00-0.495D-01
 Coeff-Com:  0.225D+00 0.104D+01
 Coeff:     -0.881D-04-0.417D-04 0.113D-03 0.125D-03-0.522D-04-0.843D-03
 Coeff:     -0.191D-03 0.105D-02 0.429D-02 0.133D-03-0.601D-02-0.112D-01
 Coeff:      0.828D-03 0.394D-01 0.615D-01-0.472D-01-0.253D+00-0.495D-01
 Coeff:      0.225D+00 0.104D+01
 Gap=     0.145 Goal=   None    Shift=    0.000
 Gap=     0.040 Goal=   None    Shift=    0.000
 RMSDP=4.18D-08 MaxDP=7.69D-06 DE= 2.18D-11 OVMax= 1.95D-06

 Cycle  37  Pass 1  IDiag  1:
 RMSU=  7.36D-09    CP:  1.00D+00  1.34D+00  1.29D+00  1.95D+00  1.61D+00
                    CP:  1.65D+00  2.65D+00  2.16D+00  1.51D+00  1.57D+00
                    CP:  1.83D+00  3.00D+00  2.61D+00  2.00D+00  2.68D+00
                    CP:  1.99D+00
 E= -2974.19454376396     Delta-E=       -0.000000000080 Rises=F Damp=F
 DIIS: error= 4.12D-09 at cycle  37 NSaved=  20.
 NSaved=20 IEnMin=17 EnMin= -2974.19454376397     IErMin=20 ErrMin= 4.12D-09
 ErrMax= 4.12D-09  0.00D+00 EMaxC= 1.00D-01 BMatC= 7.24D-14 BMatP= 7.51D-14
 IDIUse=1 WtCom= 1.00D+00 WtEn= 0.00D+00
 Coeff-Com: -0.539D-04-0.385D-04 0.145D-03 0.199D-03-0.216D-03-0.460D-03
 Coeff-Com: -0.115D-02 0.836D-03 0.240D-02 0.504D-02-0.305D-02-0.308D-01
 Coeff-Com: -0.946D-02 0.695D-01 0.803D-01-0.631D-01-0.212D+00-0.303D+00
 Coeff-Com:  0.540D+00 0.925D+00
 Coeff:     -0.539D-04-0.385D-04 0.145D-03 0.199D-03-0.216D-03-0.460D-03
 Coeff:     -0.115D-02 0.836D-03 0.240D-02 0.504D-02-0.305D-02-0.308D-01
 Coeff:     -0.946D-02 0.695D-01 0.803D-01-0.631D-01-0.212D+00-0.303D+00
 Coeff:      0.540D+00 0.925D+00
 Gap=     0.145 Goal=   None    Shift=    0.000
 Gap=     0.040 Goal=   None    Shift=    0.000
 RMSDP=4.70D-08 MaxDP=8.73D-06 DE=-8.00D-11 OVMax= 2.63D-06

 Cycle  38  Pass 1  IDiag  1:
 RMSU=  6.92D-09    CP:  1.00D+00  1.34D+00  1.29D+00  1.95D+00  1.61D+00
                    CP:  1.65D+00  2.66D+00  2.16D+00  1.51D+00  1.55D+00
                    CP:  1.81D+00  3.00D+00  2.88D+00  2.33D+00  3.00D+00
                    CP:  3.00D+00  2.19D+00
 E= -2974.19454376395     Delta-E=        0.000000000016 Rises=F Damp=F
 DIIS: error= 2.29D-09 at cycle  38 NSaved=  20.
 NSaved=20 IEnMin=16 EnMin= -2974.19454376397     IErMin=20 ErrMin= 2.29D-09
 ErrMax= 2.29D-09  0.00D+00 EMaxC= 1.00D-01 BMatC= 1.47D-14 BMatP= 7.24D-14
 IDIUse=1 WtCom= 1.00D+00 WtEn= 0.00D+00
 Coeff-Com: -0.351D-04-0.355D-05 0.533D-04 0.914D-04 0.425D-04-0.616D-03
 Coeff-Com: -0.781D-03-0.445D-03 0.443D-02 0.381D-02-0.122D-01-0.235D-01
 Coeff-Com:  0.678D-02 0.574D-01 0.614D-01-0.519D-01-0.243D+00-0.865D-01
 Coeff-Com:  0.349D+00 0.937D+00
 Coeff:     -0.351D-04-0.355D-05 0.533D-04 0.914D-04 0.425D-04-0.616D-03
 Coeff:     -0.781D-03-0.445D-03 0.443D-02 0.381D-02-0.122D-01-0.235D-01
 Coeff:      0.678D-02 0.574D-01 0.614D-01-0.519D-01-0.243D+00-0.865D-01
 Coeff:      0.349D+00 0.937D+00
 Gap=     0.145 Goal=   None    Shift=    0.000
 Gap=     0.040 Goal=   None    Shift=    0.000
 RMSDP=1.80D-08 MaxDP=1.97D-06 DE= 1.64D-11 OVMax= 2.90D-07

 Cycle  39  Pass 1  IDiag  1:
 RMSU=  8.69D-09    CP:  1.00D+00  1.34D+00  1.29D+00  1.94D+00  1.61D+00
                    CP:  1.65D+00  2.66D+00  2.16D+00  1.50D+00  1.53D+00
                    CP:  1.77D+00  3.00D+00  3.00D+00  2.61D+00  3.00D+00
                    CP:  3.00D+00  3.00D+00  2.64D+00
 E= -2974.19454376387     Delta-E=        0.000000000082 Rises=F Damp=F
 DIIS: error= 1.33D-09 at cycle  39 NSaved=  20.
 NSaved=20 IEnMin=15 EnMin= -2974.19454376397     IErMin=20 ErrMin= 1.33D-09
 ErrMax= 1.33D-09  0.00D+00 EMaxC= 1.00D-01 BMatC= 5.36D-15 BMatP= 1.47D-14
 IDIUse=1 WtCom= 1.00D+00 WtEn= 0.00D+00
 Large coefficients: NSaved= 20 BigCof=    0.00 CofMax=   10.00 Det=-5.94D-15
 Inversion failed.  Reducing to 19 matrices.
 Large coefficients: NSaved= 19 BigCof=    0.00 CofMax=   10.00 Det=-6.05D-15
 Inversion failed.  Reducing to 18 matrices.
 Large coefficients: NSaved= 18 BigCof=    0.00 CofMax=   10.00 Det=-6.08D-15
 Inversion failed.  Reducing to 17 matrices.
 Large coefficients: NSaved= 17 BigCof=    0.00 CofMax=   10.00 Det=-6.08D-15
 Inversion failed.  Reducing to 16 matrices.
 Large coefficients: NSaved= 16 BigCof=    0.00 CofMax=   10.00 Det=-6.11D-15
 Inversion failed.  Reducing to 15 matrices.
 Coeff-Com: -0.145D-03-0.406D-03 0.669D-03 0.130D-02 0.160D-02-0.368D-02
 Coeff-Com: -0.124D-01-0.937D-02 0.340D-01 0.534D-01 0.108D-01-0.177D+00
 Coeff-Com: -0.201D+00 0.301D+00 0.100D+01
 Coeff:     -0.145D-03-0.406D-03 0.669D-03 0.130D-02 0.160D-02-0.368D-02
 Coeff:     -0.124D-01-0.937D-02 0.340D-01 0.534D-01 0.108D-01-0.177D+00
 Coeff:     -0.201D+00 0.301D+00 0.100D+01
 Gap=     0.145 Goal=   None    Shift=    0.000
 Gap=     0.040 Goal=   None    Shift=    0.000
 RMSDP=1.92D-08 MaxDP=2.22D-06 DE= 8.19D-11 OVMax= 3.20D-07

 Cycle  40  Pass 1  IDiag  1:
 RMSU=  9.90D-09    CP:  1.00D+00  1.34D+00  1.29D+00  1.94D+00  1.61D+00
                    CP:  1.65D+00  2.66D+00  2.17D+00  1.51D+00  1.52D+00
                    CP:  1.73D+00  3.00D+00  3.00D+00  2.89D+00  3.00D+00
                    CP:  3.00D+00  3.00D+00  3.00D+00  2.55D+00
 E= -2974.19454376404     Delta-E=       -0.000000000175 Rises=F Damp=F
 DIIS: error= 8.14D-10 at cycle  40 NSaved=  16.
 NSaved=16 IEnMin=16 EnMin= -2974.19454376404     IErMin=16 ErrMin= 8.14D-10
 ErrMax= 8.14D-10  0.00D+00 EMaxC= 1.00D-01 BMatC= 2.31D-15 BMatP= 5.36D-15
 IDIUse=1 WtCom= 1.00D+00 WtEn= 0.00D+00
 Large coefficients: NSaved= 16 BigCof=    0.00 CofMax=   10.00 Det=-2.52D-15
 Inversion failed.  Reducing to 15 matrices.
 Coeff-Com:  0.105D-03-0.467D-03-0.254D-03 0.237D-02 0.412D-02-0.424D-02
 Coeff-Com: -0.174D-01-0.116D-02 0.278D-01 0.636D-01-0.358D-01-0.206D+00
 Coeff-Com: -0.166D+00 0.424D+00 0.908D+00
 Coeff:      0.105D-03-0.467D-03-0.254D-03 0.237D-02 0.412D-02-0.424D-02
 Coeff:     -0.174D-01-0.116D-02 0.278D-01 0.636D-01-0.358D-01-0.206D+00
 Coeff:     -0.166D+00 0.424D+00 0.908D+00
 Gap=     0.145 Goal=   None    Shift=    0.000
 Gap=     0.040 Goal=   None    Shift=    0.000
 RMSDP=1.27D-08 MaxDP=1.43D-06 DE=-1.75D-10 OVMax= 4.91D-08

 Cycle  41  Pass 1  IDiag  1:
 Restarting incremental Fock formation.
 E= -2974.19454376388     Delta-E=        0.000000000156 Rises=F Damp=F
 DIIS: error= 1.56D-09 at cycle  41 NSaved=  16.
 NSaved=16 IEnMin=15 EnMin= -2974.19454376404     IErMin=15 ErrMin= 8.14D-10
 ErrMax= 1.56D-09  0.00D+00 EMaxC= 1.00D-01 BMatC= 3.55D-15 BMatP= 2.31D-15
 IDIUse=1 WtCom= 1.00D+00 WtEn= 0.00D+00
 Large coefficients: NSaved= 16 BigCof=    0.00 CofMax=   10.00 Det=-1.95D-15
 Inversion failed.  Reducing to 15 matrices.
 Coeff-Com: -0.399D-03-0.144D-03 0.221D-02 0.375D-02-0.337D-02-0.153D-01
 Coeff-Com: -0.327D-02 0.209D-01 0.542D-01-0.989D-02-0.150D+00-0.172D+00
 Coeff-Com:  0.229D+00 0.745D+00 0.299D+00
 Coeff:     -0.399D-03-0.144D-03 0.221D-02 0.375D-02-0.337D-02-0.153D-01
 Coeff:     -0.327D-02 0.209D-01 0.542D-01-0.989D-02-0.150D+00-0.172D+00
 Coeff:      0.229D+00 0.745D+00 0.299D+00
 Gap=     0.145 Goal=   None    Shift=    0.000
 Gap=     0.040 Goal=   None    Shift=    0.000
 RMSDP=2.36D-08 MaxDP=2.44D-06 DE= 1.56D-10 OVMax= 2.98D-08

 Cycle  42  Pass 1  IDiag  1:
 RMSU=  2.35D-08    CP:  1.00D+00
 E= -2974.19454376393     Delta-E=       -0.000000000045 Rises=F Damp=F
 DIIS: error= 1.19D-09 at cycle  42 NSaved=  16.
 NSaved=16 IEnMin=14 EnMin= -2974.19454376404     IErMin=14 ErrMin= 8.14D-10
 ErrMax= 1.19D-09  0.00D+00 EMaxC= 1.00D-01 BMatC= 2.01D-15 BMatP= 2.31D-15
 IDIUse=1 WtCom= 1.00D+00 WtEn= 0.00D+00
 Large coefficients: NSaved= 16 BigCof=    0.00 CofMax=   10.00 Det=-1.00D-16
 Inversion failed.  Reducing to 15 matrices.
 Coeff-Com:  0.153D-03-0.255D-03-0.385D-03 0.368D-03-0.680D-03 0.125D-02
 Coeff-Com:  0.925D-03-0.998D-03 0.650D-03-0.306D-01 0.201D-02 0.202D-01
 Coeff-Com:  0.979D-01-0.172D+01 0.263D+01
 Coeff:      0.153D-03-0.255D-03-0.385D-03 0.368D-03-0.680D-03 0.125D-02
 Coeff:      0.925D-03-0.998D-03 0.650D-03-0.306D-01 0.201D-02 0.202D-01
 Coeff:      0.979D-01-0.172D+01 0.263D+01
 Gap=     0.145 Goal=   None    Shift=    0.000
 Gap=     0.040 Goal=   None    Shift=    0.000
 RMSDP=5.91D-08 MaxDP=6.16D-06 DE=-4.55D-11 OVMax= 7.49D-08

 Cycle  43  Pass 1  IDiag  1:
 RMSU=  1.44D-08    CP:  1.00D+00  3.00D+00
 E= -2974.19454376396     Delta-E=       -0.000000000035 Rises=F Damp=F
 DIIS: error= 3.46D-10 at cycle  43 NSaved=  16.
 NSaved=16 IEnMin=13 EnMin= -2974.19454376404     IErMin=16 ErrMin= 3.46D-10
 ErrMax= 3.46D-10  0.00D+00 EMaxC= 1.00D-01 BMatC= 7.78D-16 BMatP= 2.01D-15
 IDIUse=1 WtCom= 1.00D+00 WtEn= 0.00D+00
 Large coefficients: NSaved= 16 BigCof=    0.00 CofMax=   10.00 Det=-7.10D-17
 Inversion failed.  Reducing to 15 matrices.
 Coeff-Com: -0.453D-03-0.513D-03 0.216D-02 0.178D-02-0.262D-02-0.451D-02
 Coeff-Com: -0.103D-01 0.259D-01 0.197D-01 0.182D-01-0.130D+00-0.113D+00
 Coeff-Com: -0.158D+01 0.195D+01 0.822D+00
 Coeff:     -0.453D-03-0.513D-03 0.216D-02 0.178D-02-0.262D-02-0.451D-02
 Coeff:     -0.103D-01 0.259D-01 0.197D-01 0.182D-01-0.130D+00-0.113D+00
 Coeff:     -0.158D+01 0.195D+01 0.822D+00
 Gap=     0.145 Goal=   None    Shift=    0.000
 Gap=     0.040 Goal=   None    Shift=    0.000
 RMSDP=3.31D-08 MaxDP=3.43D-06 DE=-3.46D-11 OVMax= 3.41D-08

 Cycle  44  Pass 1  IDiag  1:
 RMSU=  1.65D-08    CP:  1.00D+00  3.00D+00  2.99D+00
 E= -2974.19454376392     Delta-E=        0.000000000047 Rises=F Damp=F
 DIIS: error= 2.01D-10 at cycle  44 NSaved=  16.
 NSaved=16 IEnMin=12 EnMin= -2974.19454376404     IErMin=16 ErrMin= 2.01D-10
 ErrMax= 2.01D-10  0.00D+00 EMaxC= 1.00D-01 BMatC= 2.65D-16 BMatP= 7.78D-16
 IDIUse=1 WtCom= 1.00D+00 WtEn= 0.00D+00
 Large coefficients: NSaved= 16 BigCof=    0.00 CofMax=   10.00 Det=-2.87D-17
 Inversion failed.  Reducing to 15 matrices.
 Coeff-Com: -0.389D-03 0.111D-02 0.858D-03-0.269D-02-0.340D-02-0.623D-02
 Coeff-Com:  0.244D-01 0.204D-01 0.566D-02-0.131D+00-0.699D-01-0.238D+00
 Coeff-Com:  0.361D+00 0.277D+00 0.761D+00
 Coeff:     -0.389D-03 0.111D-02 0.858D-03-0.269D-02-0.340D-02-0.623D-02
 Coeff:      0.244D-01 0.204D-01 0.566D-02-0.131D+00-0.699D-01-0.238D+00
 Coeff:      0.361D+00 0.277D+00 0.761D+00
 Gap=     0.145 Goal=   None    Shift=    0.000
 Gap=     0.040 Goal=   None    Shift=    0.000
 RMSDP=6.72D-09 MaxDP=1.07D-06 DE= 4.73D-11 OVMax= 3.67D-08

 Cycle  45  Pass 1  IDiag  1:
 RMSU=  6.00D-09    CP:  1.00D+00  3.00D+00  3.00D+00  1.18D+00
 E= -2974.19454376397     Delta-E=       -0.000000000055 Rises=F Damp=F
 DIIS: error= 1.74D-10 at cycle  45 NSaved=  16.
 NSaved=16 IEnMin=11 EnMin= -2974.19454376404     IErMin=16 ErrMin= 1.74D-10
 ErrMax= 1.74D-10  0.00D+00 EMaxC= 1.00D-01 BMatC= 1.52D-16 BMatP= 2.65D-16
 IDIUse=1 WtCom= 1.00D+00 WtEn= 0.00D+00
 Large coefficients: NSaved= 16 BigCof=    0.00 CofMax=   10.00 Det=-2.50D-17
 Inversion failed.  Reducing to 15 matrices.
 Coeff-Com:  0.782D-03 0.449D-03-0.205D-02-0.186D-02-0.411D-02 0.121D-01
 Coeff-Com:  0.646D-02 0.145D-01-0.597D-01-0.384D-01 0.473D+00-0.410D+00
 Coeff-Com: -0.217D+00 0.807D-01 0.115D+01
 Coeff:      0.782D-03 0.449D-03-0.205D-02-0.186D-02-0.411D-02 0.121D-01
[...]
 .00000284,-0.00000325,-0.00000098,-0.00000074,0.00000686,-0.00000005,0
 .00000008,-0.00000047,0.00000085,0.00000004,-0.00000522,-0.00093213,0.
 02163741,-0.29897416,-0.01525074,-0.00008513,0.00041328,0.00020734,0.0
 0010798,-0.00377451,-0.00050898,-0.00002798,0.00075669,-0.00089125,-0.
 00001296,0.00058962,-0.00008691,0.00016545,0.00060379,0.00266988,0.000
 17670,-0.00018605,0.00026294,-0.00001822,0.00000855,-0.00008464,-0.000
 12544,0.00011057,-0.00035312,-0.00004290,0.00017955,0.00013062,-0.0000
 1191,-0.00000357,0.00000633,-0.00002982,0.00010120,-0.00007720,0.00000
 794,-0.00000256,-0.00000054,0.00003869,-0.00004475,0.00004410,0.000002
 64,-0.00000159,0.00000218,0.00000090,-0.00000737,-0.00003290,-0.000005
 39,0.00001123,0.00001246,0.00000145,-0.00000051,0.00000030,-0.00002195
 ,0.00000314,0.00000869,0.00000752,0.00000055,-0.00001110,0.,-0.0000007
 6,0.00000043,0.00000844,-0.00000948,-0.00001059,0.00000725,-0.00000191
 ,0.00001163,0.00000039,0.00000017,-0.00000036,-0.00000920,0.00000851,-
 0.00000428,-0.00000141,0.00000102,-0.00000059,0.00000080,-0.00000721,-
 0.00000157,0.00000091,-0.00000051,0.00000197,-0.00000022,0.00000032,-0
 .00000018,-0.00000043,-0.00000047,0.00000008,0.00000541,0.00000081,0.0
 0000055,-0.00000450,-0.00000049,-0.00000433,-0.00000186,-0.00000154,-0
 .00000089,0.00000252,0.00000367,0.00000167,-0.00000084,-0.00000064,0.0
 0000034,0.00000004,0.00000049,-0.00000028,-0.00000156,-0.00000263,-0.0
 0000434,0.00000128,-0.00000587,0.00000824,-0.00000075,-0.00000042,-0.0
 0000044,0.00000047,0.00000891,-0.00001001,0.00000009,0.00000014,-0.000
 00004,0.00000139,0.00000036,0.00001182,-0.00000016,-0.00000036,-0.0000
 0013,-0.00000276,-0.00000711,-0.00000750,0.00000165,0.00000427,-0.0000
 1016,-0.00000175,-0.00000526,0.00000956,0.00000279,0.00000808,0.000007
 20,0.00000007,0.,0.00000040,-0.00000111,-0.00000536,-0.00002129,-0.000
 00012,0.00000064,0.00000036,-0.00000053,-0.00001118,0.00003251,-0.0000
 0147,0.00000141,0.00000029,0.00000003,0.00000874,-0.00003839,-0.000000
 45,0.,-0.00000052,0.00000144,0.00000374,0.00003042,-0.00000042,-0.0000
 0025,-0.00000007,0.00000395,-0.00001190,-0.00001165,-0.00000152,0.0000
 0912,-0.00001716,0.00000269,-0.00000812,0.00001553,-0.00000133,0.00001
 253,0.00001209,-0.00000029,0.,0.00000013,0.00000330,-0.00000302,-0.000
 02327,-0.00000044,-0.00000007,0.00000035,0.00000049,-0.00000053,0.0000
 2716,-0.00000027,-0.00000223,-0.00000008,-0.00000423,0.00000363,-0.000
 01885,0.00000011,-0.00000054,-0.00000057,-0.00000079,0.00000196,0.0000
 0857,0.00000212,-0.00000116,-0.00000135,-0.00000025,0.00000002,-0.0000
 0029,-0.00000207,0.00000133,-0.00000231,0.00000182,-0.00000064,0.00000
 225,-0.00000037,0.00000011,0.00000023,-0.00000167,0.00000113,0.0000018
 7,-0.00000018,-0.00000004,-0.00000094,-0.00000007,-0.00000008,0.000000
 12,0.00000220,-0.00000129,-0.00000100,-0.00000044,0.00000016,0.0000003
 2,-0.00000022,0.00000049,0.00000064,0.00000008,-0.00000027,0.00000002,
 -0.00000072,0.00000050,0.00000005,0.00000060,0.00000013,-0.00000006,-0
 .00000007,0.00000006,-0.00000019,-0.00000038,-0.00000051,-0.00000040,-
 0.00000019,-0.00000024,0.00000109,-0.00000006,0.00000004,0.00000011,-0
 .00000012,0.00000063,0.00000067,0.00000021,-0.00000006,-0.00000146,0.0
 0000010,-0.00000012,0.00000021,-0.00000026,-0.00000007,0.00000069,-0.0
 2177220,0.30022601,-0.00314516,0.01805556,-0.02318355,0.00006067,0.000
 01196,-0.00022386,0.00231541,-0.03110383,-0.00259405,-0.00065105,0.001
 46374,-0.00758646,-0.00014674,0.00084401,-0.00020807,0.00022493,-0.001
 27159,0.00186785,-0.00000546,-0.00192658,0.00023136,-0.00003896,0.0000
 0186,-0.00048196,0.00010254,-0.00034900,-0.00006726,-0.00002943,0.0001
 3158,0.00015033,0.00000539,0.00004290,0.00009241,0.00002776,0.00012044
 ,-0.00007366,0.00000803,0.00001040,-0.00000255,-0.00002627,0.00000968,
 -0.00000868,0.00000135,0.00000504,0.00000443,-0.00000187,0.00001088,0.
 00003727,-0.00000935,-0.00002168,-0.00003730,-0.00000287,-0.00000179,0
 .00000040,0.00001119,0.,-0.00004452,-0.00000930,-0.00001703,0.00003318
 ,-0.00000171,-0.00000178,-0.00000013,0.00001209,0.00002544,0.00002532,
 -0.00000147,-0.00002701,-0.00010231,-0.00000013,0.00000490,0.00000166,
 -0.00000618,-0.00003694,0.00018894,-0.00000940,0.00001406,-0.00000190,
 -0.00000693,0.00001255,-0.00024123,0.00001690,0.00002232,0.00019759,-0
 .00000132,0.00000064,-0.00000251,0.00000210,-0.00000146,-0.00000062,0.
 00002946,-0.00008208,-0.00008535,-0.00001435,0.00006424,-0.00012232,0.
 00001768,-0.00006775,0.00012933,-0.00003110,0.00008254,0.00008520,-0.0
 0000241,0.00000240,0.00000013,0.00000240,-0.00000179,0.00000310,-0.000
 01173,-0.00001287,-0.00021649,0.00000446,-0.00004130,0.00025865,0.0000
 1295,-0.00000834,0.00000215,-0.00000077,0.00004558,-0.00020566,0.00000
 125,-0.00000490,-0.00000295,0.00000276,0.00003338,0.00010552,0.0000012
 2,0.00000241,-0.00000091,-0.00000794,-0.00001863,-0.00001078,0.0000031
 5,0.00001485,-0.00002140,-0.00000032,0.00000482,0.00001536,0.00000030,
 0.00000555,0.00001957,0.00000241,0.00000315,-0.00000115,-0.00000828,0.
 00002595,0.00005254,0.00000122,-0.00000610,-0.00000287,0.00000196,0.00
 001961,-0.00016026,0.00001905,-0.00000976,0.00000271,0.00000063,-0.000
 00743,0.00022459,0.00000420,-0.00000073,0.00000285,-0.00000811,-0.0000
 2007,-0.00019245,0.00000147,0.00000219,0.00000014,-0.00004633,0.000079
 61,0.00008645,0.00002869,-0.00006252,0.00013188,-0.00002494,0.00006116
 ,-0.00011610,0.00001217,-0.00009315,-0.00009088,0.00000412,0.00000161,
 -0.00000078,-0.00003035,0.00001791,0.00018644,0.00000185,-0.00000040,-
 0.00000278,-0.00000500,0.00001798,-0.00022585,-0.00000026,0.00001834,0
 .00000079,0.00004246,-0.00003971,0.00016792,-0.00000221,0.00000438,0.0
 0000331,0.00000623,-0.00001599,-0.00008313,-0.00002522,0.00001380,0.00
 002121,0.00000063,0.00000020,0.00000237,0.00002429,-0.00001270,0.00002
 843,-0.00001737,0.00000651,-0.00002591,0.00000188,-0.00000045,-0.00000
 180,0.00001818,-0.00001154,-0.00002325,0.00000160,-0.00000275,0.000018
 99,0.,0.00000029,-0.00000092,-0.00001687,0.00001650,-0.00000838,0.0000
 0262,-0.00000049,-0.00000246,0.00000480,-0.00000966,0.00001337,0.00000
 003,0.00000097,0.00000111,0.00000433,-0.00000130,-0.00001134,-0.000008
 77,0.00000637,0.00000584,0.00000031,-0.00000017,0.00000126,0.00000788,
 -0.00000555,0.00000628,-0.00000313,0.00000758,-0.00001298,0.00000084,-
 0.00000037,-0.00000081,0.00000372,-0.00000820,-0.00000804,-0.00000081,
 -0.00000112,0.00001752,-0.00000040,0.00000052,-0.00000137,0.00000106,0
 .00000003,-0.00001309,0.00129783,0.01395850,0.03208784,0.00000009,-0.0
 0000108,-0.00000679,0.00000008,0.00000050,-0.00000052,-0.00000017,0.00
 000171,0.00000853,0.00000125,-0.00000465,-0.00000395,-0.00000021,-0.00
 000045,-0.00000060,-0.00000099,0.00000270,-0.00000551,-0.00000201,-0.0
 0000372,0.00000200,0.00000002,-0.00000024,0.00000076,0.00000152,0.0000
 0480,0.00000156,-0.00000094,-0.00000213,-0.00000082,-0.00000019,0.0000
 0062,0.00000054,0.00000158,-0.00000293,0.00000047,-0.00000111,-0.00000
 102,-0.00000147,0.00000242,0.00000972,0.00000262,-0.00000004,0.0000001
 7,-0.00000050,-0.00000049,-0.00000249,0.00000414,-0.00000364,-0.000007
 26,-0.00000895,-0.00000089,-0.00000097,-0.00000119,0.00000508,0.000005
 38,-0.00001046,-0.00000719,-0.00001084,0.00000930,-0.00000030,-0.00000
 016,0.00000154,0.00000665,0.00001062,0.00000629,0.00000068,-0.00000922
 ,-0.00003444,0.00000009,0.00000309,0.00000246,-0.00000553,-0.00002184,
 0.00008614,-0.00000522,0.00000988,-0.00000039,-0.00000533,-0.00000142,
 -0.00013000,0.00000872,0.00001131,0.00011228,-0.00000046,0.00000008,-0
 .00000240,0.00000120,-0.00000077,-0.00000112,0.00002111,-0.00005048,-0
 .00005092,-0.00001110,0.00004148,-0.00007772,0.00001074,-0.00004673,0.
 00008237,-0.00001947,0.00005647,0.00005496,-0.00000193,0.00000142,0.00
 000084,0.00000172,-0.00000077,0.00000271,-0.00000805,-0.00000956,-0.00
 014491,0.00000197,-0.00003557,0.00017991,0.00000811,-0.00000645,0.0000
 0049,0.00000154,0.00004123,-0.00014851,0.00000088,-0.00000346,-0.00000
 222,0.00000319,0.00002309,0.00008406,0.00000055,0.00000110,-0.00000137
 ,-0.00000922,-0.00002407,-0.00001836,0.00000485,0.00001700,-0.00002830
 ,-0.00000410,-0.00000674,0.00002657,0.00000556,0.00001819,0.00002368,0
 .00000182,0.00000218,-0.00000013,-0.00000677,0.00001031,0.00000264,0.0
 0000058,-0.00000303,-0.00000099,0.00000152,-0.00000623,-0.00005586,0.0
 0001033,-0.00000367,0.00000211,-0.00000314,0.00000754,0.00009115,0.000
 00313,-0.00000070,0.00000110,-0.00000029,-0.00000532,-0.00008483,-0.00
 000027,0.00000132,-0.00000047,-0.00002451,0.00003546,0.00004115,0.0000
 1729,-0.00002831,0.00006822,-0.00002041,0.00002977,-0.00005708,0.00001
 205,-0.00004763,-0.00005129,0.00000286,0.00000104,0.00000023,-0.000018
 28,0.00001033,0.00011317,0.00000137,-0.00000021,-0.00000099,-0.0000152
 6,0.00002912,-0.00014796,-0.00000075,0.00000898,0.00000106,0.00003305,
 -0.00003778,0.00013253,-0.00000022,0.00000337,0.00000114,0.00000970,-0
 .00001154,-0.00009238,-0.00002807,0.00001503,0.00003496,0.00000064,0.0
 0000099,0.00000135,0.00002322,-0.00000803,0.00004210,-0.00002178,0.000
 00859,-0.00004750,0.00000209,0.00000162,-0.00000084,0.00002544,-0.0000
 2012,-0.00003890,-0.00000616,0.00000572,0.00007923,0.00000313,0.000001
 54,-0.00000152,-0.00005476,-0.00000732,-0.00011083,0.00000731,0.000003
 88,-0.00001184,-0.00007436,-0.00003174,0.00012050,-0.00011897,-0.00005
 935,0.00006521,0.00019982,-0.00015432,-0.00004315,0.00121594,0.0005235
 4,0.00040902,-0.00003165,-0.00002438,-0.00001116,-0.00049371,-0.000326
 71,-0.00023536,0.00111018,0.00048991,0.00076231,-0.00079488,-0.0004089
 6,0.00012605,0.00013549,-0.00014932,0.00116856,-0.00095794,-0.00383850
 ,0.00096158,0.00048033,0.00000210,0.00005219,-0.06576402,0.12256631,-0
 .03693959,-0.00000009,0.00000006,-0.00000017,0.06513796,-0.00000057,-0
 .00000188,-0.00001095,0.00000001,0.00000061,-0.00000096,0.00000123,0.0
 0000083,0.00001491,0.00000098,-0.00000660,-0.00000617,-0.00000049,-0.0
 0000095,-0.00000105,-0.00000155,0.00000583,-0.00001067,-0.00000335,-0.
 00000573,0.00000317,-0.00000017,-0.00000048,0.00000141,0.00000401,0.00
 000666,0.00000282,-0.00000233,-0.00000282,-0.00000116,-0.00000061,0.00
 000107,0.00000103,0.00000284,-0.00000422,-0.00000123,-0.00000208,-0.00
 000160,-0.00000240,0.00000415,0.00001618,0.00000676,0.00000003,0.00000
 036,-0.00000097,-0.00000073,-0.00000553,0.00000538,-0.00000721,-0.0000
 1239,-0.00001441,-0.00000150,-0.00000175,-0.00000194,0.00000847,0.0000
 1054,-0.00001811,-0.00001158,-0.00001870,0.00001570,-0.00000065,-0.000
 00049,0.00000280,0.00001156,0.00001745,0.00000994,0.00000243,-0.000015
 59,-0.00005987,0.00000044,0.00000515,0.00000438,-0.00001124,-0.0000374
 6,0.00015149,-0.00000927,0.00001704,-0.00000048,-0.00000778,-0.0000028
 9,-0.00022916,0.00001523,0.00001822,0.00019674,-0.00000063,0.00000049,
 -0.00000450,0.00000199,-0.00000167,-0.00000220,0.00003833,-0.00008806,
 -0.00008831,-0.00002034,0.00007275,-0.00013797,0.00001636,-0.00008357,
 0.00014281,-0.00003214,0.00010305,0.00009836,-0.00000321,0.00000214,0.
 00000158,0.00000285,-0.00000075,0.00000478,-0.00001565,-0.00002011,-0.
 00025820,0.00000382,-0.00007033,0.00032583,0.00001343,-0.00001197,0.00
 000027,0.00000279,0.00008348,-0.00027429,0.00000167,-0.00000623,-0.000
 00405,0.00000818,0.00004267,0.00016406,0.00000065,0.00000144,-0.000002
 53,-0.00002116,-0.00005396,-0.00004535,0.00001139,0.00003721,-0.000065
 69,-0.00000980,-0.00002205,0.00006311,0.00001507,0.00004553,0.00005416
 ,0.00000325,0.00000396,0.00000058,-0.00001207,0.00000923,-0.00003471,0
 .00000078,-0.00000424,-0.00000082,-0.00000258,-0.00003687,-0.00003345,
 0.00001530,-0.00000270,0.00000432,-0.00000763,0.00003041,0.00008024,0.
 00000517,-0.00000145,0.00000066,0.00000671,-0.00000166,-0.00008432,-0.
 00000266,0.00000167,-0.00000081,-0.00003424,0.00003573,0.00004632,0.00
 002577,-0.00002823,0.00008293,-0.00003242,0.00002954,-0.00006060,0.000
 02692,-0.00005320,-0.00006256,0.00000437,0.00000195,0.00000010,-0.0000
 2970,0.00000956,0.00014592,0.00000095,-0.00000147,-0.00000107,-0.00003
 142,0.00006446,-0.00019791,-0.00000424,0.00000676,0.00000277,0.0000570
 5,-0.00006426,0.00019513,0.00000031,0.00000205,0.00000057,0.00002020,-
 0.00001361,-0.00015951,-0.00005391,0.00002962,0.00007462,-0.00000158,0
 .00000053,0.00000194,0.00003722,-0.00001973,0.00008644,-0.00003764,0.0
 0001884,-0.00009391,0.00000113,0.00000050,-0.00000192,0.00005446,-0.00
 003760,-0.00007378,-0.00002040,0.00001298,0.00017604,0.00000212,0.0000
 0075,-0.00000197,-0.00006249,0.00005025,-0.00025311,0.00000590,0.00000
 772,-0.00001340,-0.00001984,-0.00005371,0.00027924,-0.00006278,-0.0000
 3145,0.00000230,0.00000495,0.00005485,-0.00029136,0.00057232,0.0004973
 2,-0.00006060,0.00000366,-0.00001394,0.00001803,-0.00045188,0.00004493
 ,0.00026260,0.00056447,0.00053281,-0.00088763,-0.00055015,0.00010386,-
 0.00032679,-0.00003252,0.00022473,-0.00221822,-0.00280909,0.00166960,-
 0.00029673,0.00010908,0.00043048,-0.00016023,0.12132452,-0.21225261,0.
 06621346,-0.00000014,0.00000010,-0.00000045,-0.11859108,0.20873062,-0.
 00000061,-0.00000210,-0.00001289,0.00000007,0.00000059,-0.00000102,0.0
 0000127,0.00000105,0.00001708,0.00000119,-0.00000806,-0.00000728,-0.00
 000049,-0.00000112,-0.00000118,-0.00000180,0.00000734,-0.00001215,-0.0
 0000350,-0.00000736,0.00000449,-0.00000016,-0.00000054,0.00000146,0.00
 000419,0.00000838,0.00000380,-0.00000288,-0.00000287,-0.00000364,-0.00
 000054,0.00000093,0.00000121,0.00000292,-0.00000575,0.00000205,-0.0000
 0220,-0.00000184,-0.00000263,0.00000465,0.00001878,0.00000426,-0.00000
 005,0.00000027,-0.00000106,-0.00000060,-0.00000554,0.00000803,-0.00000
 807,-0.00001445,-0.00001680,-0.00000167,-0.00000181,-0.00000215,0.0000
 0971,0.00001173,-0.00002075,-0.00001326,-0.00002103,0.00001886,-0.0000
 0065,-0.00000043,0.00000297,0.00001323,0.00002029,0.00001242,0.0000026
 9,-0.00001706,-0.00006724,0.00000032,0.00000561,0.00000453,-0.00001149
 ,-0.00004280,0.00016686,-0.00000990,0.00001898,-0.00000059,-0.00001116
 ,-0.00000207,-0.00025089,0.00001820,0.00002070,0.00021609,-0.00000096,
 0.00000023,-0.00000465,0.00000286,-0.00000140,-0.00000225,0.00003973,-
 0.00009753,-0.00009760,-0.00002069,0.00008024,-0.00014978,0.00002242,-
 0.00008982,0.00015944,-0.00004006,0.00010900,0.00010722,-0.00000353,0.
 00000285,0.00000137,0.00000334,-0.00000145,0.00000488,-0.00001647,-0.0
 0001868,-0.00027938,0.00000443,-0.00006281,0.00034601,0.00001698,-0.00
 001236,0.00000188,0.00000164,0.00007268,-0.00028350,0.00000194,-0.0000
 0710,-0.00000436,0.00000517,0.00004447,0.00015409,0.00000149,0.0000026
 5,-0.00000202,-0.00001606,-0.00003889,-0.00002713,0.00000772,0.0000294
 0,-0.00004556,-0.00000503,-0.00000648,0.00003835,0.00000687,0.00002517
 ,0.00003890,0.00000360,0.00000448,-0.00000036,-0.00001238,0.00002639,0
 .00003343,0.00000145,-0.00000689,-0.00000254,0.00000052,0.00000212,-0.
 00015555,0.00002272,-0.00000952,0.00000424,-0.00000193,0.00000615,0.00
 023212,0.00000594,-0.00000114,0.00000209,-0.00000479,-0.00001999,-0.00
 020791,0.00000043,0.00000246,-0.00000063,-0.00005535,0.00008787,0.0001
 0031,0.00003635,-0.00006747,0.00015631,-0.00003680,0.00006951,-0.00013
 911,0.00002145,-0.00011148,-0.00011535,0.00000572,0.00000147,0.0000003
 1,-0.00004351,0.00002304,0.00026019,0.00000226,0.00000008,-0.00000257,
 -0.00002704,0.00005146,-0.00033612,-0.00000006,0.00002099,0.00000037,0
 .00006651,-0.00006529,0.00029251,-0.00000205,0.00000538,0.00000181,0.0
 0002142,-0.00002860,-0.00018738,-0.00005045,0.00002733,0.00006066,0.00
 000117,-0.00000086,0.,0.00004107,-0.00002096,0.00007431,-0.00003045,0.
 00000820,-0.00007980,0.00000592,-0.00000064,0.00000147,0.00004072,-0.0
 0002708,-0.00007673,0.00000332,-0.00001206,0.00010075,-0.00000266,0.00
 000443,0.00000169,-0.00003671,0.00005128,-0.00003445,0.00003396,0.0000
 1540,-0.00000191,0.00002986,-0.00017899,0.00002201,0.00005431,-0.00008
 512,-0.00047230,0.00003779,-0.00010711,0.00014405,-0.00061083,0.001768
 46,-0.00015069,0.00000921,-0.00001894,0.00009547,-0.00006712,0.0002890
 7,-0.00013746,0.00151592,-0.00291835,-0.00679487,-0.00002049,-0.000129
 06,-0.00013528,-0.00082085,0.00152411,0.00200090,-0.01430110,0.0258437
 1,-0.00927143,0.00043919,-0.00091110,-0.00004600,-0.01991977,0.0372644
 4,-0.03823514,-0.00000018,0.00000001,-0.00000048,0.03364249,-0.0623872
 3,0.05297930\\-0.00067933,0.00734106,-0.00158520,-0.00005757,0.0017368
 7,0.00059928,0.00024481,-0.00456317,-0.00096665,-0.00047853,0.00690901
 ,-0.00003659,0.00021194,-0.00270245,-0.00040130,0.00018525,-0.00444664
 ,-0.00218804,-0.00044672,0.00463278,0.00135855,-0.00006952,0.00259381,
 0.00064516,0.00057169,-0.00696507,-0.00079770,-0.00071245,0.00326005,0
 .00243499,0.00011343,-0.00172216,-0.00032535,0.00701377,0.01284857,-0.
 00463279,-0.00431830,-0.00703030,-0.00166766,-0.00442730,-0.00705852,0
 .00435931,0.00254515,0.00426262,0.00015067,-0.00372306,-0.00668821,-0.
 00716997,0.00976575,0.01586434,0.00335619,-0.00496315,-0.00822185,-0.0
 0184718,-0.00545724,-0.00909064,0.00087130,0.00530962,0.00883590,-0.00
 026081,0.00470151,0.00782614,0.00179929,-0.00972902,-0.01603063,-0.003
 90385,0.00398484,0.00639803,0.00387910,-0.00279074,-0.00442148,0.00012
 528,0.00410620,0.00496997,0.00557969,0.00369698,0.00704152,0.00158268,
 -0.00571067,-0.01745149,-0.01484272,0.00667865,-0.01472273,-0.00051508
 ,-0.00154574,0.00435266,0.00067893,0.00317668,-0.01045090,-0.00451752,
 -0.00537223,0.01953929,-0.00091315,0.00309572,-0.00895973,-0.01178275,
 -0.00154384,0.00984235,0.01325635,0.00324434,-0.02046881,0.00007313,-0
 .00280868,0.01072685,0.00449170,0.00173801,-0.00442369,-0.00067085,-0.
 00578655,0.01498123,0.00238094,-0.00013316,0.01182637,0.01603497,0.001
 39386,0.00016832,0.00005637,-0.00116810,-0.00425735,-0.00459454,-0.000
 27842,-0.00131554,0.00125042,-0.00182674,-0.00091633,-0.00253490,0.000
 14541,0.00012144,0.00004948,0.00183688,0.00559280,0.00119908,-0.000901
 42,-0.00254259,0.00157765,0.00122805,0.00352667,-0.00194224,-0.0019616
 9,-0.00594893,-0.00066910,-0.00002004,0.00021895,-0.00008174,0.0012350
 1,0.00275395,0.00939802,0.00041728,0.00104777,-0.00159631,0.00192431,0
 .00744417,-0.01230423,-0.00041778,-0.00056313,0.00011243,-0.00179952,-
 0.00776193,0.01351138,0.00005224,-0.00009254,0.00065787,0.00056083,-0.
 00172526,-0.01224947,0.00004058,-0.00011150,-0.00017171,-0.00102867,0.
 00673801,0.00249053,0.00077827,-0.00594051,0.00302415,-0.00192422,0.00
 502235,-0.00276481,0.00144092,-0.00576762,-0.00157263,-0.00009971,-0.0
 0019881,-0.00001852,-0.00018821,0.00261132,0.00722677,0.00010031,0.000
 16676,-0.00082193,-0.00678355,0.00338758,-0.01141047,0.00190132,-0.001
 09119,-0.00131091,0.00673768,-0.00395979,0.00383252,-0.00056260,0.0003
 8434,0.00017174,0.00222785,-0.00121923,-0.00329737,-0.00648177,0.00354
 891,-0.00404219,0.00234225,-0.00134343,-0.00124532,0.00509325,-0.00282
 742,-0.00512526,-0.00552281,0.00309499,0.00446551,-0.00196006,0.001115
 02,0.00119648,0.00714249,-0.00400570,0.00439436,-0.00239201,0.00143059
 ,0.00187396,0.00036335,-0.00014851,-0.00009860,-0.00295397,0.00185256,
 0.00244908,-0.00177091,0.00079760,0.00128552,0.00432419,-0.00452827,-0
 .00265724,-0.00056283,0.00157848,0.00145702,0.00446797,-0.00915787,-0.
 00272295,-0.00583358,0.01132446,0.00161654,0.00258402,-0.00473642,-0.0
 0242851,0.00310431,-0.00498529,-0.00548091,-0.00295923,0.00536199,0.00
 515130,-0.00252938,0.00525045,0.00259405,0.00584164,-0.01189092,-0.001
 39012,-0.00450214,0.00851457,0.00471233,0.00084479,-0.00151714,-0.0014
 1921,-0.00485419,0.00853838,0.00376538,0.00057869,-0.00820387,-0.00049
 574,0.00294529,-0.00520625,0.00029467\\\@
 The archive entry for this job was punched.


 YOU CAN WIPE THE SLATE CLEAN, BUT YOU'LL STILL
 HAVE TO EAT A LITTLE CHALK DUST.
 Job cpu time:       6 days  2 hours 34 minutes 48.3 seconds.
 Elapsed time:       0 days  2 hours 28 minutes 51.0 seconds.
 File lengths (MBytes):  RWF=  21381 Int=      0 D2E=      0 Chk=    113 Scr=      1
 Normal termination of Gaussian 16 at Wed Nov  2 21:56:33 2022.
